 Entering Gaussian System, Link 0=g16
 Input=/home/zxc/alkene/bhand/vtst-abs/c4-2/cis/all/RB4-2-IRC.gjf
 Output=/home/zxc/alkene/bhand/vtst-abs/c4-2/cis/all/RB4-2-IRC.log
 Initial command:
 /opt/g16/l1.exe "/home/tmp/Gau-10942.inp" -scrdir="/home/tmp/"
 Entering Link 1 = /opt/g16/l1.exe PID=     10943.
  
 Copyright (c) 1988,1990,1992,1993,1995,1998,2003,2009,2016,
            Gaussian, Inc.  All Rights Reserved.
  
 This is part of the Gaussian(R) 16 program.  It is based on
 the Gaussian(R) 09 system (copyright 2009, Gaussian, Inc.),
 the Gaussian(R) 03 system (copyright 2003, Gaussian, Inc.),
 the Gaussian(R) 98 system (copyright 1998, Gaussian, Inc.),
 the Gaussian(R) 94 system (copyright 1995, Gaussian, Inc.),
 the Gaussian 92(TM) system (copyright 1992, Gaussian, Inc.),
 the Gaussian 90(TM) system (copyright 1990, Gaussian, Inc.),
 the Gaussian 88(TM) system (copyright 1988, Gaussian, Inc.),
 the Gaussian 86(TM) system (copyright 1986, Carnegie Mellon
 University), and the Gaussian 82(TM) system (copyright 1983,
 Carnegie Mellon University). Gaussian is a federally registered
 trademark of Gaussian, Inc.
  
 This software contains proprietary and confidential information,
 including trade secrets, belonging to Gaussian, Inc.
  
 This software is provided under written license and may be
 used, copied, transmitted, or stored only in accord with that
 written license.
  
 The following legend is applicable only to US Government
 contracts under FAR:
  
                    RESTRICTED RIGHTS LEGEND
  
 Use, reproduction and disclosure by the US Government is
 subject to restrictions as set forth in subparagraphs (a)
 and (c) of the Commercial Computer Software - Restricted
 Rights clause in FAR 52.227-19.
  
 Gaussian, Inc.
 340 Quinnipiac St., Bldg. 40, Wallingford CT 06492
  
  
 ---------------------------------------------------------------
 Warning -- This program may not be used in any manner that
 competes with the business of Gaussian, Inc. or will provide
 assistance to any competitor of Gaussian, Inc.  The licensee
 of this program is prohibited from giving any competitor of
 Gaussian, Inc. access to this program.  By using this program,
 the user acknowledges that Gaussian, Inc. is engaged in the
 business of creating and licensing software in the field of
 computational chemistry and represents and warrants to the
 licensee that it is not a competitor of Gaussian, Inc. and that
 it will not use this program in any manner prohibited above.
 ---------------------------------------------------------------
  

 Cite this work as:
 Gaussian 16, Revision A.03,
 M. J. Frisch, G. W. Trucks, H. B. Schlegel, G. E. Scuseria, 
 M. A. Robb, J. R. Cheeseman, G. Scalmani, V. Barone, 
 G. A. Petersson, H. Nakatsuji, X. Li, M. Caricato, A. V. Marenich, 
 J. Bloino, B. G. Janesko, R. Gomperts, B. Mennucci, H. P. Hratchian, 
 J. V. Ortiz, A. F. Izmaylov, J. L. Sonnenberg, D. Williams-Young, 
 F. Ding, F. Lipparini, F. Egidi, J. Goings, B. Peng, A. Petrone, 
 T. Henderson, D. Ranasinghe, V. G. Zakrzewski, J. Gao, N. Rega, 
 G. Zheng, W. Liang, M. Hada, M. Ehara, K. Toyota, R. Fukuda, 
 J. Hasegawa, M. Ishida, T. Nakajima, Y. Honda, O. Kitao, H. Nakai, 
 T. Vreven, K. Throssell, J. A. Montgomery, Jr., J. E. Peralta, 
 F. Ogliaro, M. J. Bearpark, J. J. Heyd, E. N. Brothers, K. N. Kudin, 
 V. N. Staroverov, T. A. Keith, R. Kobayashi, J. Normand, 
 K. Raghavachari, A. P. Rendell, J. C. Burant, S. S. Iyengar, 
 J. Tomasi, M. Cossi, J. M. Millam, M. Klene, C. Adamo, R. Cammi, 
 J. W. Ochterski, R. L. Martin, K. Morokuma, O. Farkas, 
 J. B. Foresman, and D. J. Fox, Gaussian, Inc., Wallingford CT, 2016.
 
 ******************************************
 Gaussian 16:  ES64L-G16RevA.03 25-Dec-2016
                 3-Mar-2021 
 ******************************************
 %mem=24GB
 %nprocshared=12
 Will use up to   12 processors via shared memory.
 ----------------------------------------------------------
 # irc=(calcall,stepsize=5) m062x/6-311++g(d,p) iop(7/33=1)
 ----------------------------------------------------------
 1/10=4,18=10,26=3,38=1,39=5,44=3,71=1,172=1/1,23;
 2/12=2,17=6,18=5,29=1,40=1/2;
 3/5=4,6=6,7=1111,11=2,25=1,30=1,71=2,74=-55,140=1/1,2,3;
 4//1;
 5/5=2,38=5/2;
 8/6=4,10=90,11=11/1;
 11/6=1,8=1,9=11,15=111,16=1/1,2,10;
 10/6=1,13=1/2;
 6/7=2,8=2,9=2,10=2,18=1,28=1/1;
 7/10=1,25=1,33=1/1,2,3,16;
 1/10=4,18=10,26=3,39=5,44=3,71=1/23(2);
 2/29=1/2;
 99/5=20/99;
 2/29=1/2;
 3/5=4,6=6,7=1111,11=2,25=1,30=1,71=2,74=-55,140=1/1,2,3;
 4/5=5,16=3,69=1/1;
 5/5=2,38=5/2;
 8/6=4,10=90,11=11/1;
 11/6=1,8=1,9=11,15=111,16=1/1,2,10;
 10/6=1,13=1/2;
 7/10=1,25=1,33=1/1,2,3,16;
 1/10=4,18=10,26=3,39=5,44=3,71=1/23(-8);
 2/29=1/2;
 6/7=2,8=2,9=2,10=2,18=1,19=2,28=1/1;
 99/5=20/99;
 -------------------
 Title Card Required
 -------------------
 Symbolic Z-matrix:
 Charge =  0 Multiplicity = 2
 C
 H                    1    B1
 C                    1    B2       2    A1
 H                    3    B3       1    A2       2    D1       0
 C                    3    B4       1    A3       2    D2       0
 H                    5    B5       3    A4       1    D3       0
 H                    5    B6       3    A5       1    D4       0
 H                    5    B7       3    A6       1    D5       0
 C                    1    B8       3    A7       5    D6       0
 H                    9    B9       1    A8       3    D7       0
 H                    9    B10      1    A9       3    D8       0
 H                    9    B11      1    A10      3    D9       0
 O                    9    B12      1    A11      3    D10      0
 H                    13   B13      9    A12      1    D11      0
       Variables:
  B1                    1.08608                  
  B2                    1.33693                  
  B3                    1.08703                  
  B4                    1.49894                  
  B5                    1.09392                  
  B6                    1.0898                   
  B7                    1.09386                  
  B8                    1.48935                  
  B9                    1.08917                  
  B10                   1.16017                  
  B11                   1.08994                  
  B12                   2.58697                  
  B13                   0.97164                  
  A1                  118.09464                  
  A2                  117.97026                  
  A3                  125.9928                   
  A4                  110.58047                  
  A5                  112.57546                  
  A6                  110.36717                  
  A7                  125.14287                  
  A8                  112.91398                  
  A9                  109.8811                   
  A10                 113.95799                  
  A11                  98.73361                  
  A12                  84.62647                  
  D1                    1.57872                  
  D2                 -178.35479                  
  D3                 -118.38625                  
  D4                    3.31873                  
  D5                  123.79245                  
  D6                   -0.04725                  
  D7                  165.26689                  
  D8                  -78.08384                  
  D9                   38.34068                  
  D10                 -72.76987                  
  D11                   1.83726                  
 
 IRC-IRC-IRC-IRC-IRC-IRC-IRC-IRC-IRC-IRC-IRC-IRC-IRC-IRC-IRC-IRC-IRC-IRC
 ------------------------------------------------------------------------
 INPUT DATA FOR L123
 ------------------------------------------------------------------------
 GENERAL PARAMETERS:
 Follow reaction path in both directions.
 Maximum points per path      =  10
 Step size                    =   0.050 bohr
 Integration scheme           = HPC                                 
    Redo corrector integration= Yes                                 
    DWI Weight Power          =  2
    DWI will use Hessian update vectors when possible.
    Max correction cycles     =  20
 Initial Hessian              = CalcFC
 Hessian evaluation           = Analytic at all predictor steps
                              = Update at all corrector steps
 Hessian updating method      = Bofill                              
 ------------------------------------------------------------------------
 IRC-IRC-IRC-IRC-IRC-IRC-IRC-IRC-IRC-IRC-IRC-IRC-IRC-IRC-IRC-IRC-IRC-IRC
                          Input orientation:                          
 ---------------------------------------------------------------------
 Center     Atomic      Atomic             Coordinates (Angstroms)
 Number     Number       Type             X           Y           Z
 ---------------------------------------------------------------------
      1          6           0        0.000000    0.000000    0.000000
      2          1           0        0.000000    0.000000    1.086078
      3          6           0        1.179405    0.000000   -0.629602
      4          1           0        2.081106   -0.026450   -0.023088
      5          6           0        1.385614    0.034819   -2.113886
      6          1           0        1.908535   -0.865065   -2.450684
      7          1           0        0.448999    0.119719   -2.664522
      8          1           0        2.014388    0.885916   -2.391027
      9          6           0       -1.329565    0.035970   -0.670177
     10          1           0       -2.148687   -0.225308   -0.001555
     11          1           0       -1.565460    1.116377   -1.020991
     12          1           0       -1.381390   -0.557668   -1.582801
     13          8           0       -1.305118    2.499487   -1.459401
     14          1           0       -0.418093    2.521977   -1.063461
 ---------------------------------------------------------------------
                    Distance matrix (angstroms):
                    1          2          3          4          5
     1  C    0.000000
     2  H    1.086078   0.000000
     3  C    1.336935   2.081960   0.000000
     4  H    2.081402   2.358379   1.087025   0.000000
     5  C    2.527776   3.487250   1.498944   2.204291   0.000000
     6  H    3.224391   4.110904   2.143900   2.574156   1.093924
     7  H    2.704738   3.779277   2.165346   3.108426   1.089796
     8  H    3.249556   4.114957   2.141182   2.538503   1.093860
     9  C    1.489353   2.203059   2.509556   3.472074   3.075142
    10  H    2.160468   2.418794   3.394319   4.234520   4.125639
    11  H    2.177013   2.852491   2.988941   3.949596   3.327616
    12  H    2.173589   3.056493   2.788773   3.834551   2.879133
    13  O    3.174999   3.798715   3.620615   4.462047   3.707152
    14  H    2.768776   3.340014   3.016721   3.717910   3.246953
                    6          7          8          9         10
     6  H    0.000000
     7  H    1.773631   0.000000
     8  H    1.755191   1.764171   0.000000
     9  C    3.803598   2.673521   3.855614   0.000000
    10  H    4.782109   3.736095   4.927026   1.089166   0.000000
    11  H    4.247208   2.784343   3.839978   1.160171   1.783121
    12  H    3.416331   2.231434   3.777363   1.089942   1.788727
    13  O    4.757143   3.192575   3.806660   2.586965   3.203347
    14  H    4.337008   3.014314   3.218089   2.676880   3.416164
                   11         12         13         14
    11  H    0.000000
    12  H    1.775370   0.000000
    13  O    1.474101   3.060594   0.000000
    14  H    1.814929   3.268313   0.971641   0.000000
 Symmetry turned off by external request.
 Stoichiometry    C4H9O(2)
 Framework group  C1[X(C4H9O)]
 Deg. of freedom    36
 Full point group                 C1      NOp   1
 Rotational constants (GHZ):           5.5612606           2.9619347           2.3257136
 Standard basis: 6-311++G(d,p) (5D, 7F)
   173 basis functions,   261 primitive gaussians,   178 cartesian basis functions
    21 alpha electrons       20 beta electrons
       nuclear repulsion energy       170.7804089127 Hartrees.
 NAtoms=   14 NActive=   14 NUniq=   14 SFac= 1.00D+00 NAtFMM=   60 NAOKFM=F Big=F
 Integral buffers will be    131072 words long.
 Raffenetti 2 integral format.
 Two-electron integral symmetry is turned off.
 One-electron integrals computed using PRISM.
 NBasis=   173 RedAO= T EigKep=  1.75D-05  NBF=   173
 NBsUse=   173 1.00D-06 EigRej= -1.00D+00 NBFU=   173
 ExpMin= 3.60D-02 ExpMax= 8.59D+03 ExpMxC= 1.30D+03 IAcc=3 IRadAn=         5 AccDes= 0.00D+00
 Harris functional with IExCor= 1009 and IRadAn=       5 diagonalized for initial guess.
 HarFok:  IExCor= 1009 AccDes= 0.00D+00 IRadAn=         5 IDoV= 1 UseB2=F ITyADJ=14
 ICtDFT=  3500011 ScaDFX=  1.000000  1.000000  1.000000  1.000000
 FoFCou: FMM=F IPFlag=           0 FMFlag=      100000 FMFlg1=           0
         NFxFlg=           0 DoJE=T BraDBF=F KetDBF=T FulRan=T
         wScrn=  0.000000 ICntrl=       500 IOpCl=  0 I1Cent=   200000004 NGrid=           0
         NMat0=    1 NMatS0=      1 NMatT0=    0 NMatD0=    1 NMtDS0=    0 NMtDT0=    0
 Symmetry not used in FoFCou.
 Initial guess <Sx>= 0.0000 <Sy>= 0.0000 <Sz>= 0.5000 <S**2>= 0.7500 S= 0.5000
 Requested convergence on RMS density matrix=1.00D-08 within 128 cycles.
 Requested convergence on MAX density matrix=1.00D-06.
 Requested convergence on             energy=1.00D-06.
 No special actions if energy rises.
 Restarting incremental Fock formation.
 SCF Done:  E(UM062X) =  -232.901904298     A.U. after   21 cycles
            NFock= 21  Conv=0.40D-08     -V/T= 2.0039
 <Sx>= 0.0000 <Sy>= 0.0000 <Sz>= 0.5000 <S**2>= 0.7598 S= 0.5049
 <L.S>=  0.00000000000    
 Annihilation of the first spin contaminant:
 S**2 before annihilation     0.7598,   after     0.7501
 DoSCS=F DFT=T ScalE2(SS,OS)=  1.000000  1.000000
 Range of M.O.s used for correlation:     1   173
 NBasis=   173 NAE=    21 NBE=    20 NFC=     0 NFV=     0
 NROrb=    173 NOA=    21 NOB=    20 NVA=   152 NVB=   153

 **** Warning!!: The largest alpha MO coefficient is  0.53783307D+02


 **** Warning!!: The largest beta MO coefficient is  0.52141433D+02

 Symmetrizing basis deriv contribution to polar:
 IMax=3 JMax=2 DiffMx= 0.00D+00
 G2DrvN: will do    15 centers at a time, making    1 passes.
 Calling FoFCou, ICntrl=  3107 FMM=F I1Cent=   0 AccDes= 0.00D+00.
 End of G2Drv F.D. properties file   721 does not exist.
 End of G2Drv F.D. properties file   722 does not exist.
 End of G2Drv F.D. properties file   788 does not exist.
          IDoAtm=11111111111111
          Differentiating once with respect to nuclear coordinates.
 Keep R1 and R2 ints in memory in canonical form, NReq=238582834.
          There are    45 degrees of freedom in the 1st order CPHF.  IDoFFX=6 NUNeed=     0.
     39 vectors produced by pass  0 Test12= 1.39D-14 2.22D-09 XBig12= 2.10D-01 1.78D-01.
 AX will form    39 AO Fock derivatives at one time.
     39 vectors produced by pass  1 Test12= 1.39D-14 2.22D-09 XBig12= 2.41D-02 5.88D-02.
     39 vectors produced by pass  2 Test12= 1.39D-14 2.22D-09 XBig12= 8.06D-04 6.92D-03.
     39 vectors produced by pass  3 Test12= 1.39D-14 2.22D-09 XBig12= 1.28D-05 5.92D-04.
     39 vectors produced by pass  4 Test12= 1.39D-14 2.22D-09 XBig12= 1.00D-07 2.58D-05.
     39 vectors produced by pass  5 Test12= 1.39D-14 2.22D-09 XBig12= 9.21D-10 3.23D-06.
     35 vectors produced by pass  6 Test12= 1.39D-14 2.22D-09 XBig12= 9.72D-12 2.72D-07.
      9 vectors produced by pass  7 Test12= 1.39D-14 2.22D-09 XBig12= 4.91D-14 1.84D-08.
 InvSVY:  IOpt=1 It=  1 EMax= 1.55D-15
 Solved reduced A of dimension   278 with    39 vectors.
 End of Minotr F.D. properties file   721 does not exist.
 End of Minotr F.D. properties file   722 does not exist.
 End of Minotr F.D. properties file   788 does not exist.

 **********************************************************************

            Population analysis using the SCF density.

 **********************************************************************

 Alpha  occ. eigenvalues --  -19.65607 -10.55249 -10.54982 -10.54885 -10.53949
 Alpha  occ. eigenvalues --   -1.11892  -0.91670  -0.83150  -0.75871  -0.62039
 Alpha  occ. eigenvalues --   -0.56860  -0.55424  -0.52932  -0.49619  -0.48783
 Alpha  occ. eigenvalues --   -0.46635  -0.43793  -0.41521  -0.40880  -0.39403
 Alpha  occ. eigenvalues --   -0.30549
 Alpha virt. eigenvalues --   -0.00643   0.01255   0.01361   0.01897   0.03431
 Alpha virt. eigenvalues --    0.03902   0.04096   0.04806   0.05463   0.07769
 Alpha virt. eigenvalues --    0.08825   0.09816   0.10543   0.10928   0.12016
 Alpha virt. eigenvalues --    0.13485   0.13576   0.13946   0.14218   0.14969
 Alpha virt. eigenvalues --    0.14982   0.15893   0.16232   0.17150   0.17785
 Alpha virt. eigenvalues --    0.20598   0.21283   0.21689   0.23005   0.24858
 Alpha virt. eigenvalues --    0.26179   0.26423   0.27897   0.29101   0.29921
 Alpha virt. eigenvalues --    0.31282   0.31927   0.33984   0.36953   0.38542
 Alpha virt. eigenvalues --    0.40579   0.42282   0.47069   0.48895   0.49923
 Alpha virt. eigenvalues --    0.51057   0.52190   0.57751   0.59311   0.59398
 Alpha virt. eigenvalues --    0.60921   0.62474   0.65261   0.68157   0.69794
 Alpha virt. eigenvalues --    0.69971   0.70550   0.71620   0.74116   0.76516
 Alpha virt. eigenvalues --    0.78220   0.83933   0.85754   0.89061   0.94073
 Alpha virt. eigenvalues --    0.95461   1.00294   1.04036   1.07682   1.10804
 Alpha virt. eigenvalues --    1.13124   1.14362   1.18496   1.27001   1.29317
 Alpha virt. eigenvalues --    1.41137   1.42846   1.44939   1.45573   1.47779
 Alpha virt. eigenvalues --    1.49499   1.51115   1.53601   1.55473   1.59949
 Alpha virt. eigenvalues --    1.62056   1.64715   1.67388   1.68953   1.70531
 Alpha virt. eigenvalues --    1.71936   1.77144   1.80202   1.80431   1.84556
 Alpha virt. eigenvalues --    1.88810   1.90852   1.94482   2.01285   2.04873
 Alpha virt. eigenvalues --    2.08182   2.11431   2.11916   2.13681   2.18526
 Alpha virt. eigenvalues --    2.28867   2.33125   2.35094   2.39720   2.44480
 Alpha virt. eigenvalues --    2.48919   2.49938   2.52262   2.53270   2.54982
 Alpha virt. eigenvalues --    2.57397   2.60199   2.62260   2.63182   2.67222
 Alpha virt. eigenvalues --    2.69362   2.72079   2.74323   2.81756   2.86912
 Alpha virt. eigenvalues --    2.91351   2.95385   2.99274   3.01240   3.11249
 Alpha virt. eigenvalues --    3.16185   3.18724   3.18952   3.33458   3.39292
 Alpha virt. eigenvalues --    3.56994   3.75858   3.83292   3.85197   3.89835
 Alpha virt. eigenvalues --    3.94676   4.03152   4.10206   4.43892   5.09657
 Alpha virt. eigenvalues --    5.19337   5.56880  23.79887  24.01230  24.04296
 Alpha virt. eigenvalues --   24.32583  49.96633
  Beta  occ. eigenvalues --  -19.64229 -10.55203 -10.54927 -10.54724 -10.53954
  Beta  occ. eigenvalues --   -1.06144  -0.91361  -0.82568  -0.75315  -0.61617
  Beta  occ. eigenvalues --   -0.56679  -0.51849  -0.49685  -0.49086  -0.46619
  Beta  occ. eigenvalues --   -0.46344  -0.43584  -0.40693  -0.37734  -0.31453
  Beta virt. eigenvalues --   -0.10447  -0.00560   0.01307   0.01458   0.02168
  Beta virt. eigenvalues --    0.03787   0.03989   0.04236   0.05047   0.05613
  Beta virt. eigenvalues --    0.07925   0.08904   0.09907   0.10652   0.11060
  Beta virt. eigenvalues --    0.12136   0.13663   0.13725   0.14130   0.14297
  Beta virt. eigenvalues --    0.14916   0.15113   0.16050   0.16462   0.17190
  Beta virt. eigenvalues --    0.17917   0.20778   0.21280   0.21715   0.23097
  Beta virt. eigenvalues --    0.24935   0.25737   0.26947   0.27864   0.29132
  Beta virt. eigenvalues --    0.30081   0.31587   0.32157   0.33986   0.38715
  Beta virt. eigenvalues --    0.38971   0.40704   0.42432   0.47095   0.49134
  Beta virt. eigenvalues --    0.50134   0.51203   0.52304   0.58034   0.59521
  Beta virt. eigenvalues --    0.59639   0.61381   0.62589   0.65371   0.68698
  Beta virt. eigenvalues --    0.69879   0.70030   0.70813   0.72393   0.74274
  Beta virt. eigenvalues --    0.76712   0.78324   0.84076   0.85882   0.89088
  Beta virt. eigenvalues --    0.94172   0.95977   1.00616   1.04308   1.08290
  Beta virt. eigenvalues --    1.11939   1.13700   1.15621   1.21322   1.27395
  Beta virt. eigenvalues --    1.29663   1.41370   1.43383   1.45656   1.46030
  Beta virt. eigenvalues --    1.48274   1.49948   1.51271   1.53654   1.56149
  Beta virt. eigenvalues --    1.60037   1.62075   1.64948   1.67518   1.68898
  Beta virt. eigenvalues --    1.70590   1.72287   1.78390   1.80211   1.80578
  Beta virt. eigenvalues --    1.84630   1.88808   1.90909   1.94518   2.01326
  Beta virt. eigenvalues --    2.05054   2.09178   2.11464   2.11995   2.14054
  Beta virt. eigenvalues --    2.18751   2.29068   2.33286   2.35282   2.40116
  Beta virt. eigenvalues --    2.44673   2.49038   2.49872   2.52437   2.52861
  Beta virt. eigenvalues --    2.55035   2.57644   2.60165   2.62485   2.63396
  Beta virt. eigenvalues --    2.66317   2.69269   2.72213   2.74382   2.81770
  Beta virt. eigenvalues --    2.87094   2.94357   2.96652   2.99117   3.01624
  Beta virt. eigenvalues --    3.11473   3.18347   3.20340   3.21294   3.34021
  Beta virt. eigenvalues --    3.41633   3.57111   3.76889   3.83342   3.85462
  Beta virt. eigenvalues --    3.90068   3.97317   4.03314   4.10559   4.44288
  Beta virt. eigenvalues --    5.11735   5.26696   5.59441  23.79926  24.01412
  Beta virt. eigenvalues --   24.04326  24.32654  49.96071
          Condensed to atoms (all electrons):
               1          2          3          4          5          6
     1  C    6.936972   0.491726  -0.735880  -0.175718   0.059612  -0.032844
     2  H    0.491726   0.496697  -0.112598  -0.010481   0.013727  -0.000569
     3  C   -0.735880  -0.112598   6.110032   0.461549   0.049591  -0.025014
     4  H   -0.175718  -0.010481   0.461549   0.517732  -0.024173   0.000651
     5  C    0.059612   0.013727   0.049591  -0.024173   5.555678   0.423387
     6  H   -0.032844  -0.000569  -0.025014   0.000651   0.423387   0.561086
     7  H    0.037785   0.000306  -0.070692   0.004269   0.379064  -0.035939
     8  H    0.065129   0.001514  -0.091695  -0.012714   0.399624  -0.060719
     9  C   -0.506639  -0.076542   0.360639   0.036565  -0.146908   0.009373
    10  H   -0.137818  -0.020010   0.069587   0.004119  -0.008990   0.000621
    11  H   -0.052492   0.006626  -0.036496  -0.001234   0.009364   0.000353
    12  H    0.034725   0.008294  -0.040523  -0.003593   0.000097  -0.003583
    13  O   -0.069391  -0.001780   0.026621   0.002081   0.003871   0.002816
    14  H    0.087544   0.004144  -0.052483  -0.002704   0.013745  -0.000977
               7          8          9         10         11         12
     1  C    0.037785   0.065129  -0.506639  -0.137818  -0.052492   0.034725
     2  H    0.000306   0.001514  -0.076542  -0.020010   0.006626   0.008294
     3  C   -0.070692  -0.091695   0.360639   0.069587  -0.036496  -0.040523
     4  H    0.004269  -0.012714   0.036565   0.004119  -0.001234  -0.003593
     5  C    0.379064   0.399624  -0.146908  -0.008990   0.009364   0.000097
     6  H   -0.035939  -0.060719   0.009373   0.000621   0.000353  -0.003583
     7  H    0.555129  -0.030118  -0.013745   0.001154  -0.005274   0.002479
     8  H   -0.030118   0.576625  -0.014297  -0.001188   0.001281   0.001260
     9  C   -0.013745  -0.014297   5.979830   0.448559   0.378117   0.347105
    10  H    0.001154  -0.001188   0.448559   0.516121  -0.028091  -0.030749
    11  H   -0.005274   0.001281   0.378117  -0.028091   0.509279  -0.051021
    12  H    0.002479   0.001260   0.347105  -0.030749  -0.051021   0.568334
    13  O   -0.008922  -0.010007   0.043567   0.007606   0.036819  -0.008357
    14  H    0.002211  -0.000017  -0.025000  -0.000912  -0.043020   0.004422
              13         14
     1  C   -0.069391   0.087544
     2  H   -0.001780   0.004144
     3  C    0.026621  -0.052483
     4  H    0.002081  -0.002704
     5  C    0.003871   0.013745
     6  H    0.002816  -0.000977
     7  H   -0.008922   0.002211
     8  H   -0.010007  -0.000017
     9  C    0.043567  -0.025000
    10  H    0.007606  -0.000912
    11  H    0.036819  -0.043020
    12  H   -0.008357   0.004422
    13  O    8.010124   0.278781
    14  H    0.278781   0.505240
          Atomic-Atomic Spin Densities.
               1          2          3          4          5          6
     1  C   -0.206905  -0.014182   0.156718   0.020003  -0.039700   0.010912
     2  H   -0.014182   0.001956   0.005774   0.000771  -0.001304   0.000173
     3  C    0.156718   0.005774  -0.002041  -0.012399   0.013208  -0.007685
     4  H    0.020003   0.000771  -0.012399  -0.007304   0.000640  -0.000406
     5  C   -0.039700  -0.001304   0.013208   0.000640   0.003401  -0.003211
     6  H    0.010912   0.000173  -0.007685  -0.000406  -0.003211   0.008411
     7  H   -0.002004  -0.000157   0.000239   0.000181   0.001051   0.000277
     8  H   -0.014782  -0.000224   0.004761   0.001245   0.005674  -0.001757
     9  C    0.051993   0.014123  -0.102357  -0.008300   0.020681  -0.002123
    10  H    0.016187  -0.001031  -0.000236   0.000315  -0.001690   0.000360
    11  H   -0.089175  -0.004420   0.038049   0.001146  -0.004599  -0.001276
    12  H    0.016648  -0.000475  -0.001036   0.000293  -0.000457   0.000706
    13  O    0.044294   0.000013  -0.005615  -0.000154  -0.004821   0.000293
    14  H   -0.006731   0.000164  -0.003016  -0.000084   0.004110  -0.000284
               7          8          9         10         11         12
     1  C   -0.002004  -0.014782   0.051993   0.016187  -0.089175   0.016648
     2  H   -0.000157  -0.000224   0.014123  -0.001031  -0.004420  -0.000475
     3  C    0.000239   0.004761  -0.102357  -0.000236   0.038049  -0.001036
     4  H    0.000181   0.001245  -0.008300   0.000315   0.001146   0.000293
     5  C    0.001051   0.005674   0.020681  -0.001690  -0.004599  -0.000457
     6  H    0.000277  -0.001757  -0.002123   0.000360  -0.001276   0.000706
     7  H   -0.000177  -0.000646   0.000777   0.000042   0.000350  -0.000681
     8  H   -0.000646   0.003316   0.004871  -0.000303   0.000426  -0.000372
     9  C    0.000777   0.004871   0.302269  -0.025477   0.120162  -0.026143
    10  H    0.000042  -0.000303  -0.025477   0.005697  -0.006344   0.006561
    11  H    0.000350   0.000426   0.120162  -0.006344  -0.041074   0.001816
    12  H   -0.000681  -0.000372  -0.026143   0.006561   0.001816  -0.007757
    13  O    0.000681   0.000498  -0.086591   0.006687  -0.061362   0.005733
    14  H   -0.000240   0.000393   0.006427  -0.001058   0.008551  -0.001189
              13         14
     1  C    0.044294  -0.006731
     2  H    0.000013   0.000164
     3  C   -0.005615  -0.003016
     4  H   -0.000154  -0.000084
     5  C   -0.004821   0.004110
     6  H    0.000293  -0.000284
     7  H    0.000681  -0.000240
     8  H    0.000498   0.000393
     9  C   -0.086591   0.006427
    10  H    0.006687  -0.001058
    11  H   -0.061362   0.008551
    12  H    0.005733  -0.001189
    13  O    0.857222   0.009034
    14  H    0.009034  -0.032835
 Mulliken charges and spin densities:
               1          2
     1  C   -0.002710  -0.056723
     2  H    0.198946   0.001180
     3  C    0.087362   0.084363
     4  H    0.203651  -0.004054
     5  C   -0.727689  -0.007017
     6  H    0.161359   0.004389
     7  H    0.182293  -0.000308
     8  H    0.175322   0.003101
     9  C   -0.820624   0.270311
    10  H    0.179992  -0.000289
    11  H    0.275790  -0.037752
    12  H    0.171111  -0.006354
    13  O   -0.313831   0.765911
    14  H    0.229026  -0.016759
 Sum of Mulliken charges =  -0.00000   1.00000
 Mulliken charges and spin densities with hydrogens summed into heavy atoms:
               1          2
     1  C    0.196237  -0.055543
     3  C    0.291013   0.080309
     5  C   -0.208715   0.000165
     9  C   -0.193730   0.225917
    13  O   -0.084805   0.749153
 APT charges:
               1
     1  C   -0.242913
     2  H    0.312482
     3  C   -0.093370
     4  H    0.410788
     5  C   -1.485226
     6  H    0.502975
     7  H    0.325948
     8  H    0.526429
     9  C   -1.378048
    10  H    0.414190
    11  H    0.347719
    12  H    0.438439
    13  O   -0.221748
    14  H    0.142334
 Sum of APT charges =  -0.00000
 APT charges with hydrogens summed into heavy atoms:
               1
     1  C    0.069569
     3  C    0.317418
     5  C   -0.129874
     9  C   -0.177699
    13  O   -0.079414
 Electronic spatial extent (au):  <R**2>=            787.7567
 Charge=             -0.0000 electrons
 Dipole moment (field-independent basis, Debye):
    X=              1.6986    Y=             -1.3638    Z=              0.6963  Tot=              2.2869
 Quadrupole moment (field-independent basis, Debye-Ang):
   XX=            -33.4621   YY=            -38.1320   ZZ=            -34.0607
   XY=              5.6655   XZ=             -3.5836   YZ=              3.6390
 Traceless Quadrupole moment (field-independent basis, Debye-Ang):
   XX=              1.7562   YY=             -2.9137   ZZ=              1.1575
   XY=              5.6655   XZ=             -3.5836   YZ=              3.6390
 Octapole moment (field-independent basis, Debye-Ang**2):
  XXX=              6.8931  YYY=            -57.5750  ZZZ=            105.3927  XYY=             15.3826
  XXY=            -26.1326  XXZ=             36.1925  XZZ=              6.6183  YZZ=            -25.4739
  YYZ=             41.1861  XYZ=             -8.4100
 Hexadecapole moment (field-independent basis, Debye-Ang**3):
 XXXX=           -343.0850 YYYY=           -306.8176 ZZZZ=           -396.8332 XXXY=             73.8004
 XXXZ=             15.8621 YYYX=             98.5882 YYYZ=             89.2127 ZZZX=             14.8858
 ZZZY=             89.9723 XXYY=           -131.0127 XXZZ=           -124.5298 YYZZ=           -130.0396
 XXYZ=             35.5016 YYXZ=            -15.0018 ZZXY=             34.2254
 N-N= 1.707804089127D+02 E-N=-8.843885528485D+02  KE= 2.319928068458D+02
  Exact polarizability:   0.000   0.000   0.000   0.000   0.000   0.000
 Approx polarizability:  78.203  -5.934  71.354  -5.344  -6.069  62.852
                          Isotropic Fermi Contact Couplings
        Atom                 a.u.       MegaHertz       Gauss      10(-4) cm-1
     1  C(13)             -0.01382     -15.53306      -5.54258      -5.18127
     2  H(1)               0.00103       4.59524       1.63970       1.53281
     3  C(13)              0.01024      11.51422       4.10856       3.84073
     4  H(1)              -0.00137      -6.12870      -2.18687      -2.04431
     5  C(13)             -0.00300      -3.37304      -1.20358      -1.12513
     6  H(1)               0.00212       9.47735       3.38175       3.16130
     7  H(1)               0.00001       0.02767       0.00987       0.00923
     8  H(1)               0.00167       7.47069       2.66573       2.49196
     9  C(13)              0.09570     107.58200      38.38793      35.88549
    10  H(1)              -0.00009      -0.42284      -0.15088      -0.14104
    11  H(1)              -0.00820     -36.67116     -13.08518     -12.23218
    12  H(1)              -0.00193      -8.61118      -3.07268      -2.87238
    13  O(17)              0.12433     -75.36741     -26.89297     -25.13986
    14  H(1)              -0.01319     -58.95116     -21.03524     -19.66399
 --------------------------------------------------------
       Center         ----  Spin Dipole Couplings  ----
                      3XX-RR        3YY-RR        3ZZ-RR
 --------------------------------------------------------
     1   Atom        0.023797     -0.038270      0.014473
     2   Atom        0.001666     -0.001944      0.000278
     3   Atom       -0.040624      0.087321     -0.046697
     4   Atom        0.004525     -0.001097     -0.003427
     5   Atom        0.000698      0.001771     -0.002469
     6   Atom        0.000556     -0.000229     -0.000327
     7   Atom       -0.000120      0.000231     -0.000111
     8   Atom        0.002748     -0.001674     -0.001074
     9   Atom       -0.159376      0.287776     -0.128400
    10   Atom        0.003672     -0.000529     -0.003144
    11   Atom       -0.079322      0.143590     -0.064268
    12   Atom       -0.021339      0.011162      0.010177
    13   Atom       -1.464546      2.600648     -1.136103
    14   Atom        0.104004     -0.043270     -0.060734
 --------------------------------------------------------
                        XY            XZ            YZ
 --------------------------------------------------------
     1   Atom       -0.008063      0.004744     -0.007019
     2   Atom       -0.001882      0.003004     -0.002575
     3   Atom       -0.000572      0.002905      0.005188
     4   Atom       -0.002158      0.006860     -0.001044
     5   Atom       -0.003120     -0.002215      0.001600
     6   Atom       -0.002143     -0.001501      0.001128
     7   Atom       -0.003986     -0.003763      0.002762
     8   Atom       -0.001429     -0.002429     -0.000181
     9   Atom       -0.058833      0.015863     -0.131931
    10   Atom        0.004778     -0.020721     -0.010780
    11   Atom        0.004780     -0.001139     -0.075024
    12   Atom       -0.000451      0.001333      0.013909
    13   Atom        0.532410     -0.170934     -1.266602
    14   Atom        0.014287      0.091415     -0.016682
 --------------------------------------------------------


 ---------------------------------------------------------------------------------
              Anisotropic Spin Dipole Couplings in Principal Axis System
 ---------------------------------------------------------------------------------

       Atom             a.u.   MegaHertz   Gauss  10(-4) cm-1        Axes

              Baa    -0.0400    -5.374    -1.918    -1.793  0.1159  0.9864  0.1169
     1 C(13)  Bbb     0.0127     1.701     0.607     0.567 -0.4263 -0.0569  0.9028
              Bcc     0.0274     3.673     1.311     1.225  0.8971 -0.1545  0.4139
 
              Baa    -0.0036    -1.942    -0.693    -0.648 -0.0256  0.8262  0.5627
     2 H(1)   Bbb    -0.0017    -0.921    -0.329    -0.307  0.7217  0.4048 -0.5615
              Bcc     0.0054     2.863     1.022     0.955  0.6917 -0.3918  0.6066
 
              Baa    -0.0480    -6.448    -2.301    -2.151 -0.3665 -0.0372  0.9297
     3 C(13)  Bbb    -0.0395    -5.297    -1.890    -1.767  0.9304 -0.0108  0.3664
              Bcc     0.0875    11.745     4.191     3.918 -0.0036  0.9993  0.0385
 
              Baa    -0.0074    -3.940    -1.406    -1.314 -0.5029 -0.0292  0.8639
     4 H(1)   Bbb    -0.0017    -0.884    -0.315    -0.295  0.1842  0.9729  0.1401
              Bcc     0.0090     4.824     1.721     1.609  0.8445 -0.2296  0.4838
 
              Baa    -0.0036    -0.484    -0.173    -0.161  0.4581  0.0013  0.8889
     5 C(13)  Bbb    -0.0017    -0.228    -0.082    -0.076  0.6251  0.7105 -0.3232
              Bcc     0.0053     0.713     0.254     0.238 -0.6319  0.7037  0.3247
 
              Baa    -0.0020    -1.080    -0.385    -0.360  0.6707  0.7343  0.1050
     6 H(1)   Bbb    -0.0013    -0.685    -0.245    -0.229  0.2775 -0.3797  0.8825
              Bcc     0.0033     1.766     0.630     0.589  0.6879 -0.5627 -0.4584
 
              Baa    -0.0043    -2.307    -0.823    -0.769  0.7936  0.4394  0.4209
     7 H(1)   Bbb    -0.0027    -1.444    -0.515    -0.482 -0.0041 -0.6878  0.7258
              Bcc     0.0070     3.751     1.338     1.251  0.6084 -0.5778 -0.5441
 
              Baa    -0.0029    -1.536    -0.548    -0.512  0.4386  0.6184  0.6521
     8 H(1)   Bbb    -0.0013    -0.695    -0.248    -0.232 -0.1167  0.7587 -0.6410
              Bcc     0.0042     2.231     0.796     0.744  0.8911 -0.2050 -0.4049
 
              Baa    -0.1680   -22.539    -8.043    -7.518  0.7322  0.2749  0.6231
     9 C(13)  Bbb    -0.1656   -22.227    -7.931    -7.414 -0.6699  0.1260  0.7317
              Bcc     0.3336    44.767    15.974    14.932 -0.1226  0.9532 -0.2764
 
              Baa    -0.0221   -11.801    -4.211    -3.937  0.5750  0.2601  0.7757
    10 H(1)   Bbb    -0.0035    -1.892    -0.675    -0.631 -0.4604  0.8866  0.0441
              Bcc     0.0257    13.693     4.886     4.568  0.6763  0.3825 -0.6296
 
              Baa    -0.0885   -47.238   -16.856   -15.757 -0.0423  0.3081  0.9504
    11 H(1)   Bbb    -0.0794   -42.366   -15.117   -14.132  0.9989 -0.0058  0.0464
              Bcc     0.1679    89.603    31.973    29.888  0.0198  0.9514 -0.3075
 
              Baa    -0.0214   -11.437    -4.081    -3.815  0.9975  0.0391 -0.0593
    12 H(1)   Bbb    -0.0032    -1.685    -0.601    -0.562  0.0698 -0.6939  0.7167
              Bcc     0.0246    13.123     4.682     4.377  0.0131  0.7190  0.6949
 
              Baa    -1.5376   111.262    39.701    37.113  0.8660  0.0411  0.4984
    13 O(17)  Bbb    -1.5210   110.058    39.271    36.711 -0.4848  0.3135  0.8165
              Bcc     3.0586  -221.320   -78.972   -73.824  0.1227  0.9487 -0.2915
 
              Baa    -0.1083   -57.758   -20.609   -19.266 -0.3937  0.3088  0.8658
    14 H(1)   Bbb    -0.0366   -19.552    -6.977    -6.522  0.0956  0.9505 -0.2956
              Bcc     0.1449    77.310    27.586    25.788  0.9143  0.0336  0.4037
 

 ---------------------------------------------------------------------------------

 SCFChk:  SCF convergence  4.04D-09 required  1.00D-08
 Entering OneElI...
 Calculate overlap and kinetic energy integrals
    NBasis = 178  MinDer = 2  MaxDer = 2
 Requested accuracy = 0.1000D-12
 PrmmSu-InSpLW:  IPartL=    0 NPrtUS=   12 NPrtUL=    1 DoSpLW=F IThBeg=    0 IThEnd=   11 NThAct=   12.
 PrsmSu:  NPrtUS=  12 ThrOK=T IAlg=1 NPAlg=1 LenDen=           0 ISkipM=0 DoSpLW=F IThBeg=    0 IThEnd=   11.
 Prism:   IPart=     0 DynPar=F LinDyn=F Incr=           2.
 PRISM was handed   268352112 working-precision words and  2850 shell-pairs
 PRISM was handed   268352112 working-precision words and  2850 shell-pairs
 PRISM was handed   268352112 working-precision words and  2850 shell-pairs
 PRISM was handed   268352112 working-precision words and  2850 shell-pairs
 PRISM was handed   268352112 working-precision words and  2850 shell-pairs
 PRISM was handed   268352112 working-precision words and  2850 shell-pairs
 PRISM was handed   268352112 working-precision words and  2850 shell-pairs
 PRISM was handed   268352112 working-precision words and  2850 shell-pairs
 PRISM was handed   268352112 working-precision words and  2850 shell-pairs
 PRISM was handed   268352112 working-precision words and  2850 shell-pairs
 PRISM was handed   268352112 working-precision words and  2850 shell-pairs
 PRISM was handed   268352112 working-precision words and  2850 shell-pairs
 IPart=  8 NShTot=         230 NBatch=          28 AvBLen=         8.2
 IPart=  9 NShTot=         223 NBatch=          26 AvBLen=         8.6
 IPart=  3 NShTot=         245 NBatch=          35 AvBLen=         7.0
 IPart= 10 NShTot=         221 NBatch=          26 AvBLen=         8.5
 IPart=  1 NShTot=         255 NBatch=          41 AvBLen=         6.2
 IPart=  7 NShTot=         232 NBatch=          28 AvBLen=         8.3
 IPart=  4 NShTot=         242 NBatch=          34 AvBLen=         7.1
 IPart=  6 NShTot=         233 NBatch=          28 AvBLen=         8.3
 IPart=  0 NShTot=         263 NBatch=          47 AvBLen=         5.6
 IPart= 11 NShTot=         218 NBatch=          24 AvBLen=         9.1
 IPart=  5 NShTot=         236 NBatch=          31 AvBLen=         7.6
 IPart=  2 NShTot=         252 NBatch=          38 AvBLen=         6.6
 PrSmSu:  NxtVal=             25.
 Entering OneElI...
 Calculate potential energy integrals
    NBasis = 178  MinDer = 2  MaxDer = 2
 Requested accuracy = 0.1000D-12
 PrmmSu-InSpLW:  IPartL=    0 NPrtUS=   12 NPrtUL=    1 DoSpLW=F IThBeg=    0 IThEnd=   11 NThAct=   12.
 PrsmSu:  NPrtUS=  12 ThrOK=T IAlg=1 NPAlg=1 LenDen=           0 ISkipM=0 DoSpLW=F IThBeg=    0 IThEnd=   11.
 Prism:   IPart=     0 DynPar=F LinDyn=F Incr=          32.
 PRISM was handed   268361918 working-precision words and  2765 shell-pairs
 PRISM was handed   268361918 working-precision words and  2765 shell-pairs
 PRISM was handed   268361918 working-precision words and  2765 shell-pairs
 PRISM was handed   268361918 working-precision words and  2765 shell-pairs
 PRISM was handed   268361918 working-precision words and  2765 shell-pairs
 PRISM was handed   268361918 working-precision words and  2765 shell-pairs
 PRISM was handed   268361918 working-precision words and  2765 shell-pairs
 PRISM was handed   268361918 working-precision words and  2765 shell-pairs
 PRISM was handed   268361918 working-precision words and  2765 shell-pairs
 PRISM was handed   268361918 working-precision words and  2765 shell-pairs
 PRISM was handed   268361918 working-precision words and  2765 shell-pairs
 PRISM was handed   268361918 working-precision words and  2765 shell-pairs
 IPart=  6 NShTot=        3164 NBatch=         226 AvBLen=        14.0
 IPart=  7 NShTot=        3122 NBatch=         223 AvBLen=        14.0
 IPart= 10 NShTot=        2996 NBatch=         214 AvBLen=        14.0
 IPart=  8 NShTot=        3094 NBatch=         221 AvBLen=        14.0
 IPart=  4 NShTot=        3304 NBatch=         236 AvBLen=        14.0
 IPart=  1 NShTot=        3486 NBatch=         249 AvBLen=        14.0
 IPart=  0 NShTot=        3556 NBatch=         254 AvBLen=        14.0
 IPart=  3 NShTot=        3332 NBatch=         238 AvBLen=        14.0
 IPart=  5 NShTot=        3220 NBatch=         230 AvBLen=        14.0
 IPart=  2 NShTot=        3402 NBatch=         243 AvBLen=        14.0
 IPart=  9 NShTot=        3038 NBatch=         217 AvBLen=        14.0
 IPart= 11 NShTot=        2996 NBatch=         214 AvBLen=        14.0
 PrSmSu:  NxtVal=            385.
 Polarizability after L701:
                1             2             3 
      1  0.000000D+00
      2  0.000000D+00  0.000000D+00
      3  0.000000D+00  0.000000D+00  0.000000D+00
 Dipole Derivatives after L701:
                 1             2             3             4             5 
      1  -0.472808D+00  0.147874D+00  0.553594D-01  0.201432D+00  0.225847D-01
      2   0.142681D+00 -0.625377D-02 -0.397064D+00  0.225473D-01  0.954883D-01
      3   0.276603D+00 -0.243680D+00 -0.249677D+00 -0.778177D-02 -0.344389D-02
                 6             7             8             9            10 
      1   0.209494D-01 -0.380890D+00 -0.260061D+00 -0.414383D+00  0.953035D+00
      2   0.125521D-01 -0.322438D+00  0.151993D+00  0.100774D+00 -0.236412D-01
      3   0.640525D+00 -0.737056D-01  0.937676D-01 -0.512135D-01 -0.138465D-01
                11            12            13            14            15 
      1  -0.397193D-01  0.506746D+00 -0.137559D+01  0.255768D-01  0.506335D+00
      2   0.110875D+00  0.437212D-02  0.591272D-01 -0.124057D+01  0.916789D-01
      3   0.109856D-01  0.168454D+00  0.168092D+00  0.655147D-01 -0.183952D+01
                16            17            18            19            20 
      1   0.538730D+00 -0.657963D+00 -0.252026D+00  0.867341D-01 -0.206566D-02
      2  -0.187345D+00  0.491654D+00  0.985705D-01 -0.676059D-01  0.168616D+00
      3  -0.516503D+00  0.822915D+00  0.478542D+00  0.985677D+00 -0.134338D+00
                21            22            23            24            25 
      1  -0.795394D-01  0.652087D+00  0.668945D+00 -0.223722D+00 -0.151312D+01
      2  -0.269556D-01  0.204897D+00  0.505074D+00 -0.780273D-01  0.104074D+00
      3   0.722493D+00 -0.539473D+00 -0.767737D+00  0.422125D+00 -0.365556D+00
                26            27            28            29            30 
      1   0.547356D-01 -0.183423D+00  0.896989D+00  0.199404D+00 -0.605637D+00
      2  -0.120881D+01  0.118886D+00  0.785684D-01  0.172733D+00 -0.715929D-01
      3   0.101758D+00 -0.141221D+01 -0.174320D-03 -0.795847D-02  0.172848D+00
                31            32            33            34            35 
      1   0.320714D+00 -0.342537D+00  0.103272D+00  0.202433D+00  0.239336D+00
      2   0.381632D-01  0.478440D+00 -0.998740D-02  0.455456D-02  0.340090D+00
      3   0.254970D-01 -0.204049D+00  0.244003D+00  0.239001D-01  0.310666D+00
                36            37            38            39            40 
      1   0.510588D+00 -0.224490D+00 -0.673995D-01  0.103260D+00  0.114747D+00
      2   0.238118D+00 -0.116498D+01 -0.303301D+00 -0.548353D+00  0.111140D+01
      3   0.772795D+00  0.471645D+00 -0.440935D-01 -0.137453D+00 -0.434374D+00
                41            42 
      1   0.112891D-01 -0.477787D-01
      2   0.243969D+00  0.467028D+00
      3  -0.307748D-03  0.682860D-01
 Hessian after L701:
                1             2             3             4             5 
      1  0.546207D+01
      2  0.603098D+00  0.184075D+02
      3  0.149429D+01  0.300636D-01  0.104828D+02
      4 -0.368916D+01  0.976548D-02  0.273649D-01  0.378538D+01
      5  0.117356D-01 -0.361136D+01 -0.102264D-01  0.424616D-01  0.349471D+01
      6  0.706087D-01  0.446202D-01 -0.135335D+01  0.124358D-01  0.599984D-01
      7 -0.861817D+00 -0.374750D-01 -0.346295D+01  0.366152D-01 -0.110192D-01
      8 -0.111384D+00 -0.105274D+02 -0.736757D-02 -0.607288D-02  0.642511D-01
      9 -0.317587D+01 -0.642410D-01 -0.537641D+01  0.402144D-01  0.634331D-02
     10  0.167280D+00 -0.238623D-02  0.481365D-01 -0.241654D-01 -0.316837D-03
     11  0.140751D-02  0.100211D+00 -0.442818D-02  0.458438D-03 -0.127110D-02
     12  0.114762D+00 -0.394517D-02  0.136040D+00  0.243177D-01 -0.328123D-03
     13 -0.561700D-01  0.212602D-02 -0.662877D-01 -0.198061D-01  0.785310D-03
     14 -0.195688D-02 -0.369257D-01 -0.582728D-02  0.450068D-03 -0.226296D-01
     15 -0.221838D+00 -0.247253D-02  0.452465D-01 -0.438800D-01  0.265024D-02
     16  0.382336D-01 -0.419884D-01 -0.236764D-01 -0.681650D-04 -0.576191D-03
     17 -0.624189D-01  0.380824D-01  0.508465D-01 -0.145728D-02 -0.658103D-03
     18 -0.379572D-01  0.487898D-01  0.137971D-01  0.432902D-03  0.246495D-02
     19 -0.777494D-01 -0.268971D-02  0.444648D-01 -0.264263D-02 -0.280300D-03
     20  0.373939D-02 -0.553836D-01 -0.718539D-02  0.142858D-03 -0.242671D-02
     21 -0.252567D-01 -0.345951D-02  0.168115D-01 -0.152011D-02 -0.767350D-03
     22  0.152828D-01  0.657225D-01 -0.712433D-01 -0.411701D-03  0.122011D-02
     23  0.838606D-01 -0.177645D-01 -0.727485D-01  0.192439D-02 -0.134300D-02
     24 -0.805079D-01 -0.674667D-01 -0.970623D-03 -0.963786D-03 -0.321572D-02
     25 -0.784147D+00 -0.316944D+00  0.206282D+01 -0.200173D-01 -0.135428D-01
     26 -0.249218D+00 -0.486506D+01 -0.166253D-01 -0.189813D-01  0.667556D-01
     27  0.192584D+01 -0.244292D-01 -0.380552D+01 -0.910930D-01 -0.152590D-01
     28 -0.920921D-01 -0.773687D-03  0.691963D-01 -0.433506D-01 -0.589120D-02
     29 -0.114218D-01  0.156207D+00  0.151876D-02 -0.934624D-02  0.250673D-01
     30  0.351582D-01 -0.685482D-02  0.170338D+00 -0.305452D-01 -0.291744D-02
     31  0.565261D-01 -0.414245D-01 -0.515011D-01  0.251400D-02 -0.175708D-01
     32 -0.455105D-01  0.143345D+00 -0.222622D-01 -0.158831D-01 -0.102623D-01
     33 -0.313789D-01 -0.976224D-02 -0.216241D-01  0.267504D-01 -0.209020D-01
     34 -0.383304D-01 -0.155649D-01 -0.653780D-01 -0.606415D-02  0.584331D-02
     35  0.172058D-02  0.417268D-01  0.303948D-01  0.927917D-02 -0.148598D-01
     36 -0.341135D-01  0.257069D-01  0.338278D-01  0.276761D-01  0.110356D-01
     37 -0.147369D-02 -0.253086D+00  0.492373D-03 -0.111324D-01 -0.165506D-01
     38 -0.179698D+00  0.859823D-01  0.103799D+00 -0.101605D-01  0.680339D-02
     39 -0.445512D-01  0.648554D-01 -0.210184D+00  0.715040D-02 -0.211530D-01
     40 -0.138451D+00  0.316197D-01 -0.572818D-02 -0.768582D-02  0.370190D-02
     41 -0.439545D-01  0.140896D+00 -0.699518D-01 -0.258068D-02  0.722163D-02
     42  0.108199D-01 -0.314047D-01 -0.130819D+00  0.165959D-02 -0.772347D-02
                6             7             8             9            10 
      6  0.791733D+00
      7 -0.378278D-01  0.702577D+01
      8  0.243009D-02  0.433604D-01  0.186430D+02
      9  0.225481D+00  0.301239D+01  0.393820D+00  0.871565D+01
     10  0.139245D-02 -0.205398D+01 -0.364072D-01  0.108183D+01  0.162828D+01
     11 -0.206022D-03 -0.573962D-01 -0.350742D+01 -0.378748D-01  0.695705D-01
     12 -0.745484D-02  0.103131D+01 -0.239283D-01 -0.287595D+01 -0.129800D+01
     13 -0.450738D-01 -0.474405D+01  0.412777D-01 -0.756081D+00  0.107657D+00
     14  0.292531D-02  0.181864D-01 -0.491483D+01 -0.181267D+00 -0.963957D-02
     15  0.905568D-01 -0.600858D+00 -0.241949D+00 -0.253219D+00  0.416202D-01
     16 -0.547868D-02  0.485376D-01 -0.429366D-01 -0.127616D-01 -0.423050D-02
     17  0.883699D-02 -0.473256D-01  0.116210D+00  0.559099D-01  0.931783D-02
     18  0.370572D-02  0.723773D-03  0.184685D-01  0.347770D-02  0.595168D-02
     19  0.948316D-02  0.185460D+00 -0.239428D-02  0.288541D-01  0.204374D-01
     20 -0.148569D-02 -0.420021D-02  0.110954D+00  0.705530D-02 -0.311957D-02
     21  0.148495D-01 -0.269128D-01  0.267906D-01 -0.637983D-01  0.503232D-01
     22 -0.839317D-02  0.799090D-01  0.233287D-01  0.344019D-01  0.341409D-02
     23 -0.960265D-02  0.262391D-01  0.153800D+00 -0.286562D-01 -0.871235D-02
     24  0.576957D-02  0.486325D-01  0.101103D-01  0.829021D-02  0.441113D-02
     25 -0.724916D-01  0.472621D-01  0.148006D+00 -0.186572D+00  0.107193D+00
     26 -0.299608D-01  0.128538D+00 -0.177720D+00 -0.204311D-01  0.911735D-02
     27  0.101390D+00 -0.446721D-01  0.372652D-02 -0.304192D+00  0.346054D-01
     28 -0.282525D-01  0.267751D+00  0.428950D-01 -0.123665D+00  0.239133D-01
     29 -0.241243D-02  0.590017D-01 -0.986983D-01 -0.180373D-01  0.404448D-02
     30  0.554952D-02 -0.135604D+00 -0.135965D-01 -0.669812D-01 -0.835598D-02
     31  0.400416D-01 -0.143187D+00  0.378623D-01 -0.330327D-01 -0.633174D-02
     32 -0.383225D-01 -0.421315D-02  0.106153D+00  0.290404D-01 -0.357503D-02
     33  0.286888D-01 -0.729919D-02 -0.365717D-03  0.640405D-01 -0.390031D-04
     34  0.380029D-01  0.315856D-01  0.511531D-01 -0.220702D-01  0.205921D-02
     35  0.252000D-01  0.556567D-01  0.381602D-01  0.960883D-02  0.374970D-02
     36  0.647750D-01  0.441013D-01  0.326000D-01 -0.148576D-01  0.936657D-02
     37  0.370064D-01  0.605255D-01 -0.220825D+00  0.104920D+00  0.351064D-01
     38 -0.450012D-01 -0.193070D+00  0.239680D-01 -0.150660D+00 -0.291754D-01
     39  0.293828D-01  0.183288D+00 -0.204332D+00 -0.982524D-01  0.314839D-01
     40 -0.114534D-01  0.196172D-01  0.321357D-01  0.744362D-02 -0.663372D-02
     41 -0.170196D-01  0.237169D-01 -0.303387D-01 -0.610437D-03 -0.246759D-02
     42 -0.108022D-02 -0.432015D-02  0.359222D-02  0.367182D-01 -0.272371D-02
               11            12            13            14            15 
     11  0.342826D+01
     12  0.560289D-01  0.280707D+01
     13 -0.348220D-02  0.199293D-01  0.117979D+02
     14  0.269611D-01 -0.811362D-02  0.305700D+00  0.126271D+02
     15 -0.125014D-02 -0.524084D-01  0.640336D+00  0.130730D+00  0.961122D+01
     16 -0.124288D-02 -0.466650D-02 -0.281987D+01 -0.875975D+00 -0.368897D+00
     17  0.217678D-03  0.464216D-02 -0.826921D+00 -0.186750D+01  0.606862D+00
     18 -0.256064D-02 -0.656680D-02 -0.374895D+00  0.658934D+00 -0.305613D+01
     19 -0.305884D-02  0.452939D-01 -0.197482D+01 -0.183736D+00  0.103469D+01
     20 -0.130321D-01 -0.368943D-02 -0.148927D+00 -0.361125D+01 -0.934231D-01
     21 -0.391468D-02  0.442196D-01  0.125744D+01 -0.143260D+00 -0.290253D+01
     22  0.142024D-02 -0.409973D-02 -0.262684D+01  0.105830D+01 -0.380794D+00
     23  0.687599D-02 -0.100529D-02  0.970272D+00 -0.203680D+01 -0.485433D+00
     24  0.639625D-02 -0.828819D-02 -0.400182D+00 -0.557583D+00 -0.318893D+01
     25  0.782418D-02  0.355536D-01  0.169127D+00 -0.178660D-01 -0.517751D-01
     26 -0.380466D-01  0.258020D-02 -0.486880D-01 -0.132955D+00  0.403032D-01
     27  0.170144D-02 -0.413764D-01 -0.200320D+00  0.148810D-01 -0.272567D-01
     28  0.140338D-02  0.547985D-02 -0.217250D-02  0.178293D-02  0.476946D-02
     29 -0.486417D-02  0.914736D-03  0.991282D-03 -0.139209D-02  0.753600D-03
     30  0.400719D-03 -0.690854D-02 -0.742349D-02 -0.133579D-02 -0.169352D-02
     31  0.193854D-02 -0.118083D-02  0.708744D-01 -0.286482D-01 -0.309019D-01
     32  0.246969D-02 -0.290658D-02 -0.508823D-01 -0.273794D-01  0.107180D-01
     33 -0.269567D-03  0.198108D-02 -0.309130D-01  0.107418D-01 -0.328442D-01
     34  0.115393D-02  0.981848D-03  0.490507D-01 -0.765610D-02  0.147918D-02
     35  0.733119D-03  0.244234D-02  0.214926D-01 -0.356010D-01  0.624436D-02
     36  0.699735D-03  0.598304D-02  0.301176D-01  0.892401D-02 -0.343921D-01
     37 -0.217209D-01  0.339613D-01  0.794260D-01 -0.245323D+00 -0.117658D-01
     38 -0.160310D-02 -0.210109D-01 -0.205699D+00 -0.187030D-02  0.277984D-02
     39 -0.154343D-01  0.535728D-02 -0.377546D-01  0.294547D-01 -0.163368D+00
     40  0.172434D-02 -0.363998D-02 -0.302754D-01 -0.136184D-01 -0.121882D-01
     41  0.507389D-03 -0.168102D-02 -0.580465D-01  0.351225D-01  0.234856D-01
     42  0.711224D-03 -0.169388D-02 -0.288925D-01  0.407964D-01 -0.342535D-01
               16            17            18            19            20 
     16  0.260766D+01
     17  0.947724D+00  0.175318D+01
     18  0.468040D+00 -0.760798D+00  0.289607D+01
     19 -0.276370D-01  0.495866D-01 -0.144006D-01  0.200324D+01
     20  0.854846D-01  0.279276D-01  0.234310D-01  0.155619D+00  0.354893D+01
     21 -0.775175D-02  0.140467D-01  0.714545D-01 -0.110236D+01  0.927333D-01
     22  0.105034D+00 -0.210765D-02 -0.956317D-02 -0.523857D-01 -0.846358D-01
     23 -0.216970D-01 -0.800218D-01 -0.641527D-02 -0.391430D-01  0.430850D-01
     24 -0.993526D-02 -0.417172D-02  0.964384D-01 -0.212256D-01 -0.237640D-01
     25  0.223968D-01 -0.196431D-01 -0.196993D-01 -0.242114D-01  0.239263D-02
     26 -0.137581D-01 -0.125233D-01  0.546299D-02 -0.461374D-02 -0.407303D-01
     27 -0.293275D-01  0.179099D-01 -0.906312D-02 -0.284430D-01 -0.882173D-02
     28  0.651957D-02 -0.602098D-02 -0.470796D-02 -0.108227D-03  0.233143D-02
     29  0.272725D-03 -0.195062D-02 -0.322623D-03  0.182509D-03 -0.383744D-02
     30 -0.551128D-02  0.446508D-02  0.225711D-02 -0.308574D-02 -0.230952D-02
     31  0.115251D-02 -0.228730D-02 -0.800116D-03 -0.665405D-02  0.373524D-02
     32 -0.550764D-02  0.445989D-02  0.105823D-02  0.619844D-02  0.118014D-02
     33  0.418242D-03 -0.421237D-03 -0.102915D-02  0.561679D-02 -0.212927D-02
     34  0.637168D-02 -0.360715D-02 -0.222826D-02 -0.850643D-02  0.461323D-02
     35  0.297325D-02 -0.264172D-02 -0.128186D-02  0.656521D-03 -0.701146D-02
     36  0.560992D-02 -0.535850D-02 -0.250045D-02 -0.344076D-02  0.134195D-02
     37  0.200162D-01 -0.400686D-01 -0.132944D-01 -0.360543D-01 -0.183238D-01
     38 -0.303277D-01  0.225354D-01  0.113644D-01  0.221118D-01  0.399932D-03
     39 -0.301911D-02  0.279628D-02 -0.125391D-01  0.939620D-03  0.132808D-01
     40 -0.411868D-02  0.522874D-02  0.239691D-02  0.163934D-02  0.114732D-02
     41 -0.244550D-02  0.267620D-02  0.140492D-02  0.156099D-02  0.119364D-02
     42 -0.304282D-02  0.443424D-02  0.630464D-03  0.361053D-02  0.496591D-02
               21            22            23            24            25 
     21  0.266213D+01
     22 -0.160314D-01  0.241968D+01
     23 -0.135386D-01 -0.106006D+01  0.195654D+01
     24  0.674780D-01  0.500537D+00  0.627289D+00  0.301606D+01
     25 -0.740907D-01  0.218625D-01  0.978506D-02 -0.110338D-01  0.962969D+01
     26  0.177111D-02  0.229993D-02 -0.119999D-02  0.150691D-02  0.245140D+00
     27  0.902830D-01 -0.213598D-01 -0.128190D-01  0.367837D-02 -0.100713D+01
     28 -0.155574D-01  0.184346D-02  0.431768D-02 -0.629583D-03 -0.206970D+01
     29 -0.267441D-02  0.694519D-03  0.133205D-02 -0.126333D-03  0.420753D+00
     30  0.107120D-01 -0.174253D-02 -0.348910D-02  0.128315D-02 -0.106086D+01
     31  0.286479D-02  0.164713D-01  0.224706D-02 -0.829264D-02 -0.307024D+01
     32  0.411386D-02 -0.637031D-02 -0.782134D-02  0.238207D-02 -0.508390D+00
     33 -0.390950D-03 -0.602554D-02  0.379224D-03 -0.171678D-02  0.174139D+00
     34 -0.131573D-01  0.400905D-02  0.375415D-02 -0.165889D-02 -0.360053D+01
     35 -0.958236D-02  0.604598D-02  0.265022D-02 -0.194805D-02  0.897974D-01
     36 -0.139885D-01  0.567491D-02  0.577488D-02 -0.446714D-02  0.148475D+00
     37 -0.328694D-01  0.196136D-01  0.290159D-01 -0.229624D-01 -0.456021D+00
     38  0.304411D-01 -0.572165D-02 -0.155820D-01  0.102350D-01 -0.102704D+00
     39  0.330244D-03 -0.179413D-01  0.376003D-02  0.417761D-02  0.632863D-01
     40  0.488116D-02 -0.748172D-02 -0.180560D-02  0.381185D-02  0.273415D-01
     41  0.730011D-02 -0.137690D-03 -0.374668D-02  0.355856D-03  0.553913D-01
     42  0.244064D-02 -0.341954D-02 -0.349642D-02  0.120009D-02 -0.628502D-03
               26            27            28            29            30 
     26  0.118118D+02
     27  0.505697D+00  0.118117D+02
     28  0.380254D+00 -0.108674D+01  0.182494D+01
     29 -0.338207D+01 -0.316370D+00 -0.481970D+00  0.322047D+01
     30 -0.281669D+00 -0.272048D+01  0.116609D+01  0.359685D+00  0.261816D+01
     31 -0.637075D+00  0.227601D+00  0.567053D-01 -0.473650D-01  0.233914D-01
     32 -0.997137D+00 -0.784744D+00 -0.216948D-01 -0.182439D-01  0.422931D-01
     33 -0.758431D+00 -0.291610D+01  0.175177D-01  0.712490D-01  0.207420D-01
     34  0.161316D+00  0.281789D+00  0.427826D-01  0.261724D-01  0.611738D-01
     35 -0.289423D+01  0.112298D+01  0.141725D-01  0.631990D-01 -0.116552D-01
     36  0.104099D+01 -0.183586D+01  0.426637D-01 -0.295279D-01 -0.452566D-01
     37 -0.711986D-01  0.611808D-01 -0.272816D-01  0.277494D-01 -0.232875D-01
     38  0.640214D+00 -0.495104D+00  0.631402D-01  0.412586D-01 -0.784867D-01
     39 -0.508816D+00 -0.317088D+00 -0.472997D-01 -0.656874D-01  0.156087D-01
     40  0.116868D+00 -0.219332D-01  0.102477D-01  0.102415D-01 -0.940504D-02
     41  0.229329D-01 -0.934821D-02  0.605379D-02  0.351946D-02 -0.452952D-02
     42  0.176242D-01 -0.301512D-01  0.112975D-02  0.103794D-02 -0.333022D-02
               31            32            33            34            35 
     31  0.359798D+01
     32  0.523773D+00  0.315322D+00
     33 -0.102243D+00  0.121639D+01  0.329494D+01
     34  0.954320D-01  0.659349D-02  0.679077D-02  0.344065D+01
     35  0.294256D-01 -0.797626D-01 -0.731525D-01 -0.236192D+00  0.284669D+01
     36  0.116577D-01 -0.300159D-01  0.827939D-01 -0.287655D+00 -0.113988D+01
     37 -0.691806D+00  0.189026D+00 -0.557947D-01 -0.152789D-01 -0.147931D-01
     38  0.257353D+00  0.592491D+00 -0.435248D+00 -0.582271D-02  0.240500D-01
     39 -0.835250D-01 -0.430611D+00 -0.588755D+00 -0.329308D-03  0.334602D-01
     40  0.205656D-01 -0.635644D-01  0.246095D-02 -0.322921D-02  0.160150D-01
     41 -0.819646D-01 -0.248141D-01  0.192125D-02  0.824340D-02  0.168936D-01
     42  0.592083D-02  0.286519D-02  0.692765D-01  0.225884D-02  0.717193D-02
               36            37            38            39            40 
     36  0.177313D+01
     37 -0.103063D-01  0.273912D+01
     38  0.683261D-01  0.432138D+00  0.364583D+01
     39 -0.669284D-02 -0.163137D+01  0.107918D+01  0.587829D+01
     40  0.101729D-01 -0.171476D+01 -0.123638D-01  0.157965D+01  0.183322D+01
     41  0.938646D-02  0.223960D+00 -0.506448D+01  0.192468D-01 -0.127330D+00
     42 -0.249478D-02  0.156409D+01 -0.806142D-01 -0.453626D+01 -0.154646D+01
               41            42 
     41  0.489242D+01
     42  0.400396D-01  0.462982D+01
 ICntrl=    100127.
 Calling FoFJK, ICntrl=    100127 FMM=F ISym2X=0 I1Cent= 0 IOpClX= 1 NMat=1 NMatS=1 NMatT=0.
 FoFJK:  IHMeth= 1 ICntrl=  100127 DoSepK=F KAlg= 0 I1Cent=           0 FoldK=F
 IRaf=         0 NMat=       1 IRICut=       1 DoRegI=T DoRafI=F ISym2E= 0 IDoP0=0 IntGTp=1.
 FoFCou: FMM=F IPFlag=           0 FMFlag=      100000 FMFlg1=         800
         NFxFlg=           0 DoJE=F BraDBF=F KetDBF=F FulRan=T
         wScrn=  0.000000 ICntrl=    100127 IOpCl=  1 I1Cent=           0 NGrid=           0
         NMat0=    1 NMatS0=      1 NMatT0=    0 NMatD0=    1 NMtDS0=    0 NMtDT0=    0
 Symmetry not used in FoFCou.
 FoFCou:  KetSym=F NOpSet=  1 NOpAb=1 NOp=  1.
 FoFCou:  CnvScl= 1.00D+00 Thresh= 1.00D-12 IAcrcy=      10.
 PrismS was handed  3220976506 working-precision words and  2839 shell-pairs
 FoFCou: LinMIO=F DoNuc=F BraDBF=F KetDBF=F HaveP=T PDBF=F HaveZ=T HaveW=F
         NIJTC =      10 NIJTAt=       0 NIJTCD=       0 NIJTT =      10
         IJTBeg=       1 IJTEnd=      10 KLTBeg=       1 KLTEnd=      10
         IPTBeg=       1 IPTEnd=      10 IPTBCv=       1 IPTECv=      10
         IZTBeg=       1 IZTEnd=      10 IZTBCv=       1 IZTECv=      10
         IWTBeg=      11 IWTEnd=      10 IWTBCv=      11 IWTECv=      10
         INTBeg=       1 INTEnd=       0 IFTBCv=       1 IFTECv=      10
 NCel replicated for PrismC:     1
 CoulSu-InSpLW:  IPartL=    0 NPrtUS=   12 NPrtUL=    1 DoSpLW=F IThBeg=    0 IThEnd=   11 NThAct=   12.
 CoulSu:  IncDef=  1024 NBBP=        4031380 NTPThr=   100 NPartT=   12 Incr=        1024 LDynOK=F GPUOK=T.
 CoulSu:  NPrtUS=  12 ThrOK=T IAlg=1 NPAlg=1 LenDen=           0 LWGrdD=           0 DoCopy=F ISkipM=0
          DoSpLW=F IThBeg=    0 IThEnd=   11.
 Enter PrismC:  IPart=  0 JobTyp=22 DoJE=F Cont=F.
 PrismC:  IPart=     0 DynPar=T LinDyn=F Incr=        1024 UseFst=F UseS4=T ISplat=2.
 PrismC was handed   268358297 working-precision words and  2839 shell-pairs
 Enter PrismC:  IPart=  4 JobTyp=22 DoJE=F Cont=F.
 PrismC:  IPart=     4 DynPar=T LinDyn=F Incr=        1024 UseFst=F UseS4=T ISplat=2.
 PrismC was handed   268358297 working-precision words and  2839 shell-pairs
 Enter PrismC:  IPart=  8 JobTyp=22 DoJE=F Cont=F.
 PrismC:  IPart=     8 DynPar=T LinDyn=F Incr=        1024 UseFst=F UseS4=T ISplat=2.
 PrismC was handed   268358297 working-precision words and  2839 shell-pairs
 Enter PrismC:  IPart= 10 JobTyp=22 DoJE=F Cont=F.
 PrismC:  IPart=    10 DynPar=T LinDyn=F Incr=        1024 UseFst=F UseS4=T ISplat=2.
 PrismC was handed   268358297 working-precision words and  2839 shell-pairs
 Enter PrismC:  IPart=  7 JobTyp=22 DoJE=F Cont=F.
 PrismC:  IPart=     7 DynPar=T LinDyn=F Incr=        1024 UseFst=F UseS4=T ISplat=2.
 Enter PrismC:  IPart=  6 JobTyp=22 DoJE=F Cont=F.
 Enter PrismC:  IPart=  1 JobTyp=22 DoJE=F Cont=F.
 PrismC:  IPart=     6 DynPar=T LinDyn=F Incr=        1024 UseFst=F UseS4=T ISplat=2.
 Enter PrismC:  IPart=  3 JobTyp=22 DoJE=F Cont=F.
 Enter PrismC:  IPart=  2 JobTyp=22 DoJE=F Cont=F.
 Enter PrismC:  IPart=  9 JobTyp=22 DoJE=F Cont=F.
 PrismC:  IPart=     1 DynPar=T LinDyn=F Incr=        1024 UseFst=F UseS4=T ISplat=2.
 PrismC:  IPart=     9 DynPar=T LinDyn=F Incr=        1024 UseFst=F UseS4=T ISplat=2.
 Enter PrismC:  IPart=  5 JobTyp=22 DoJE=F Cont=F.
 PrismC was handed   268358297 working-precision words and  2839 shell-pairs
 Enter PrismC:  IPart= 11 JobTyp=22 DoJE=F Cont=F.
 PrismC:  IPart=     3 DynPar=T LinDyn=F Incr=        1024 UseFst=F UseS4=T ISplat=2.
 PrismC was handed   268358297 working-precision words and  2839 shell-pairs
 PrismC:  IPart=     5 DynPar=T LinDyn=F Incr=        1024 UseFst=F UseS4=T ISplat=2.
 PrismC was handed   268358297 working-precision words and  2839 shell-pairs
 PrismC:  IPart=     2 DynPar=T LinDyn=F Incr=        1024 UseFst=F UseS4=T ISplat=2.
 PrismC was handed   268358297 working-precision words and  2839 shell-pairs
 PrismC was handed   268358297 working-precision words and  2839 shell-pairs
 PrismC:  IPart=    11 DynPar=T LinDyn=F Incr=        1024 UseFst=F UseS4=T ISplat=2.
 PrismC was handed   268358297 working-precision words and  2839 shell-pairs
 PrismC was handed   268358297 working-precision words and  2839 shell-pairs
 PrismC was handed   268358297 working-precision words and  2839 shell-pairs
 IPart=  2 NShTot=      261615 NShNF=      261615 NShFF=           0 MinMC=       7
           NShCPU=      261615 NBCPU=        6986 AvBCPU=        37.4
           NShGPU=           0 NBGPU=           0 AvBGPU=         0.0
 IPart= 10 NShTot=      325062 NShNF=      325062 NShFF=           0 MinMC=       7
           NShCPU=      325062 NBCPU=        9005 AvBCPU=        36.1
           NShGPU=           0 NBGPU=           0 AvBGPU=         0.0
 IPart=  9 NShTot=      276593 NShNF=      276593 NShFF=           0 MinMC=       7
           NShCPU=      276593 NBCPU=        8227 AvBCPU=        33.6
           NShGPU=           0 NBGPU=           0 AvBGPU=         0.0
 IPart=  4 NShTot=      322915 NShNF=      322915 NShFF=           0 MinMC=       7
           NShCPU=      322915 NBCPU=        9073 AvBCPU=        35.6
           NShGPU=           0 NBGPU=           0 AvBGPU=         0.0
 IPart=  5 NShTot=      288152 NShNF=      288152 NShFF=           0 MinMC=       7
           NShCPU=      288152 NBCPU=        7366 AvBCPU=        39.1
           NShGPU=           0 NBGPU=           0 AvBGPU=         0.0
 IPart=  8 NShTot=      312535 NShNF=      312535 NShFF=           0 MinMC=       7
           NShCPU=      312535 NBCPU=        8816 AvBCPU=        35.5
           NShGPU=           0 NBGPU=           0 AvBGPU=         0.0
 IPart=  1 NShTot=      321503 NShNF=      321503 NShFF=           0 MinMC=       7
           NShCPU=      321503 NBCPU=        9037 AvBCPU=        35.6
           NShGPU=           0 NBGPU=           0 AvBGPU=         0.0
 IPart=  7 NShTot=      322514 NShNF=      322514 NShFF=           0 MinMC=       7
           NShCPU=      322514 NBCPU=        8973 AvBCPU=        35.9
           NShGPU=           0 NBGPU=           0 AvBGPU=         0.0
 IPart= 11 NShTot=      247732 NShNF=      247732 NShFF=           0 MinMC=       7
           NShCPU=      247732 NBCPU=        7486 AvBCPU=        33.1
           NShGPU=           0 NBGPU=           0 AvBGPU=         0.0
 IPart=  3 NShTot=      312554 NShNF=      312554 NShFF=           0 MinMC=       7
           NShCPU=      312554 NBCPU=        8345 AvBCPU=        37.5
           NShGPU=           0 NBGPU=           0 AvBGPU=         0.0
 IPart=  0 NShTot=      328486 NShNF=      328486 NShFF=           0 MinMC=       7
           NShCPU=      328486 NBCPU=        8734 AvBCPU=        37.6
           NShGPU=           0 NBGPU=           0 AvBGPU=         0.0
 IPart=  6 NShTot=      254008 NShNF=      254008 NShFF=           0 MinMC=       7
           NShCPU=      254008 NBCPU=        7868 AvBCPU=        32.3
           NShGPU=           0 NBGPU=           0 AvBGPU=         0.0
 CoulSu:  NxtVal=        4359169 LenVP=      268358298 MinMC=       7.
 ReadGW:  IGet=0 IStart=           1 Next=           1 LGW=           0.
 Remaining memory in FofDFT     3071.94 Mw
 CkSvGd:  ISavGI=        -1 IRadAn=       5 IRASav=       5 ISavGd=        -1.
 CalDSu-InSpLW:  IPartL=    0 NPrtUS=   12 NPrtUL=    1 DoSpLW=F IThBeg=    0 IThEnd=   11 NThAct=   12.
 CalDSu:  NPrtUS=  12 ThrOK=T IAlg=1 NPAlg=2 DoDPD=T LenP=       15931 LenD1P=             0 GPUOK=F
          ISkipM=0 DoSpLW=F IThBeg=    0 IThEnd=   11.
 IPart=  0 IRanGd=          0 ScrnBf=T ScrnGd=T RCrit=4.00D+00 DoMicB=T.
 IPart= 10        27401 of        31978 points in      29 batches and      144 microbatches, Max-NSigAt=      14 Max-NSgAt2=      14
 IPart=  9        21654 of        23930 points in      22 batches and      104 microbatches, Max-NSigAt=      14 Max-NSgAt2=      14
 IPart=  6        24471 of        30208 points in      32 batches and      147 microbatches, Max-NSigAt=      14 Max-NSgAt2=      14
 IPart=  3        22924 of        25082 points in      22 batches and      133 microbatches, Max-NSigAt=      14 Max-NSgAt2=      14
 IPart= 11        21099 of        24064 points in      23 batches and      120 microbatches, Max-NSigAt=      14 Max-NSgAt2=      14
 IPart=  7        23795 of        26534 points in      27 batches and      157 microbatches, Max-NSigAt=      14 Max-NSgAt2=      14
 IPart=  0        23601 of        26106 points in      25 batches and      167 microbatches, Max-NSigAt=      14 Max-NSgAt2=      14
 IPart=  8        25892 of        28756 points in      26 batches and      119 microbatches, Max-NSigAt=      14 Max-NSgAt2=      14
 IPart=  4        23101 of        25706 points in      25 batches and      160 microbatches, Max-NSigAt=      14 Max-NSgAt2=      14
 IPart=  2        21510 of        24042 points in      23 batches and      126 microbatches, Max-NSigAt=      14 Max-NSgAt2=      14
 IPart=  1        24820 of        28234 points in      28 batches and      161 microbatches, Max-NSigAt=      14 Max-NSgAt2=      14
 IPart=  5        25512 of        28802 points in      25 batches and       98 microbatches, Max-NSigAt=      14 Max-NSgAt2=      14
 Polarizability after L703:
                1             2             3 
      1  0.000000D+00
      2  0.000000D+00  0.000000D+00
      3  0.000000D+00  0.000000D+00  0.000000D+00
 Dipole Derivatives after L703:
                 1             2             3             4             5 
      1  -0.472808D+00  0.147874D+00  0.553594D-01  0.201432D+00  0.225847D-01
      2   0.142681D+00 -0.625377D-02 -0.397064D+00  0.225473D-01  0.954883D-01
      3   0.276603D+00 -0.243680D+00 -0.249677D+00 -0.778177D-02 -0.344389D-02
                 6             7             8             9            10 
      1   0.209494D-01 -0.380890D+00 -0.260061D+00 -0.414383D+00  0.953035D+00
      2   0.125521D-01 -0.322438D+00  0.151993D+00  0.100774D+00 -0.236412D-01
      3   0.640525D+00 -0.737056D-01  0.937676D-01 -0.512135D-01 -0.138465D-01
                11            12            13            14            15 
      1  -0.397193D-01  0.506746D+00 -0.137559D+01  0.255768D-01  0.506335D+00
      2   0.110875D+00  0.437212D-02  0.591272D-01 -0.124057D+01  0.916789D-01
      3   0.109856D-01  0.168454D+00  0.168092D+00  0.655147D-01 -0.183952D+01
                16            17            18            19            20 
      1   0.538730D+00 -0.657963D+00 -0.252026D+00  0.867341D-01 -0.206566D-02
      2  -0.187345D+00  0.491654D+00  0.985705D-01 -0.676059D-01  0.168616D+00
      3  -0.516503D+00  0.822915D+00  0.478542D+00  0.985677D+00 -0.134338D+00
                21            22            23            24            25 
      1  -0.795394D-01  0.652087D+00  0.668945D+00 -0.223722D+00 -0.151312D+01
      2  -0.269556D-01  0.204897D+00  0.505074D+00 -0.780273D-01  0.104074D+00
      3   0.722493D+00 -0.539473D+00 -0.767737D+00  0.422125D+00 -0.365556D+00
                26            27            28            29            30 
      1   0.547356D-01 -0.183423D+00  0.896989D+00  0.199404D+00 -0.605637D+00
      2  -0.120881D+01  0.118886D+00  0.785684D-01  0.172733D+00 -0.715929D-01
      3   0.101758D+00 -0.141221D+01 -0.174320D-03 -0.795847D-02  0.172848D+00
                31            32            33            34            35 
      1   0.320714D+00 -0.342537D+00  0.103272D+00  0.202433D+00  0.239336D+00
      2   0.381632D-01  0.478440D+00 -0.998740D-02  0.455456D-02  0.340090D+00
      3   0.254970D-01 -0.204049D+00  0.244003D+00  0.239001D-01  0.310666D+00
                36            37            38            39            40 
      1   0.510588D+00 -0.224490D+00 -0.673995D-01  0.103260D+00  0.114747D+00
      2   0.238118D+00 -0.116498D+01 -0.303301D+00 -0.548353D+00  0.111140D+01
      3   0.772795D+00  0.471645D+00 -0.440935D-01 -0.137453D+00 -0.434374D+00
                41            42 
      1   0.112891D-01 -0.477787D-01
      2   0.243969D+00  0.467028D+00
      3  -0.307748D-03  0.682860D-01
 Hessian after L703:
                1             2             3             4             5 
      1  0.733488D+00
      2 -0.993814D-02  0.143106D+00
      3 -0.114409D+00 -0.337245D-02  0.689953D+00
      4 -0.548412D-01  0.112848D-02 -0.365694D-02  0.609806D-01
      5  0.349293D-02 -0.382252D-01  0.851044D-03  0.874983D-04  0.249504D-01
      6  0.565262D-03  0.585135D-03 -0.336856D+00 -0.629606D-03 -0.553513D-03
      7 -0.435175D+00  0.266984D-02  0.182108D+00  0.744981D-03 -0.122639D-02
      8  0.482074D-03 -0.573714D-01  0.264523D-03 -0.292967D-03  0.496952D-02
      9  0.166242D+00 -0.388201D-03 -0.208891D+00  0.315870D-01  0.798283D-03
     10 -0.223672D-01  0.956601D-03 -0.179745D-01  0.616665D-03 -0.150262D-03
     11 -0.553136D-03  0.621376D-02  0.144932D-03 -0.118013D-03 -0.784065D-02
     12  0.155725D-01 -0.283710D-03  0.101232D-01  0.400726D-03 -0.248121D-03
     13 -0.171049D-02 -0.467259D-03  0.318976D-01 -0.370795D-02  0.288226D-03
     14 -0.287987D-03  0.876392D-02 -0.127372D-03  0.140660D-03  0.126309D-01
     15  0.103808D-01  0.158907D-03 -0.155600D-01  0.391293D-03  0.361521D-03
     16  0.193485D-02  0.325219D-03  0.552338D-03 -0.206172D-03 -0.448009D-03
     17 -0.137342D-02 -0.236498D-03  0.599816D-03 -0.349036D-05 -0.373280D-03
     18 -0.147163D-02  0.750127D-03 -0.388385D-02  0.729383D-03  0.247689D-02
     19 -0.581729D-04  0.780617D-04 -0.334187D-04  0.102104D-03  0.342263D-05
     20  0.288689D-03 -0.704267D-04  0.475371D-04 -0.716512D-05 -0.415162D-04
     21 -0.372042D-03 -0.813259D-04  0.114149D-02 -0.332635D-05 -0.133763D-03
     22  0.119486D-02 -0.249123D-03  0.163398D-03 -0.225264D-03  0.295020D-03
     23  0.109658D-02 -0.240669D-03 -0.157799D-03 -0.225925D-04 -0.223828D-03
     24 -0.149876D-02 -0.536724D-03 -0.449576D-02  0.766003D-03 -0.246886D-02
     25 -0.191281D+00  0.462397D-02 -0.669313D-01  0.339930D-03 -0.262784D-02
     26 -0.242692D-01 -0.618498D-01 -0.429708D-02 -0.297313D-02  0.615539D-02
     27 -0.448736D-01  0.143146D-02 -0.126338D+00 -0.264536D-01 -0.308867D-04
     28 -0.199073D-01 -0.722589D-02  0.196352D-01  0.112600D-02  0.463284D-03
     29  0.516475D-02 -0.207894D-03 -0.120212D-02 -0.149037D-03 -0.119327D-03
     30 -0.144745D-01 -0.507468D-02  0.114704D-01  0.304697D-03 -0.208590D-03
     31 -0.522426D-02  0.217852D-01 -0.627763D-02 -0.763992D-03 -0.575305D-03
     32  0.399066D-01 -0.321887D-02  0.276676D-02  0.191558D-02 -0.346878D-02
     33 -0.154130D-01  0.111242D-01 -0.512452D-02 -0.132709D-02  0.236652D-03
     34  0.115925D-02 -0.160804D-01 -0.246278D-01 -0.392751D-02 -0.215024D-03
     35  0.538779D-02  0.232403D-02  0.463404D-02  0.103978D-02  0.272856D-03
     36 -0.479837D-02 -0.514635D-02 -0.118271D-01 -0.237287D-02 -0.871960D-03
     37 -0.528708D-02  0.240351D-02 -0.693366D-03 -0.612959D-04  0.379198D-03
     38 -0.167670D-01 -0.899941D-04 -0.120373D-02 -0.705313D-03  0.112934D-02
     39  0.417444D-02  0.128801D-02  0.645892D-03  0.304756D-03 -0.569584D-03
     40 -0.192488D-02 -0.100268D-04  0.247202D-03 -0.176893D-03  0.233254D-03
     41 -0.263053D-02  0.110325D-02  0.105188D-02 -0.402930D-04  0.184225D-03
     42  0.375333D-03 -0.454364D-03 -0.356993D-03 -0.404671D-04  0.360886D-03
                6             7             8             9            10 
      6  0.356852D+00
      7 -0.164088D-02  0.816246D+00
      8  0.141710D-03 -0.815622D-02  0.152032D+00
      9 -0.136823D-01 -0.771364D-01 -0.938373D-02  0.620068D+00
     10  0.329255D-03 -0.246204D+00  0.588126D-02 -0.127066D+00  0.263166D+00
     11  0.000000D+00  0.627491D-02 -0.401271D-01  0.354836D-02 -0.629302D-02
     12  0.114899D-02 -0.132285D+00  0.404206D-02 -0.143920D+00  0.136511D+00
     13  0.191429D-02 -0.917146D-01 -0.366095D-03  0.891620D-02  0.638196D-02
     14  0.667556D-05  0.109755D-03 -0.724906D-01  0.459609D-02 -0.271254D-03
     15  0.170721D-02  0.130150D-01  0.386148D-02 -0.230705D+00  0.439509D-02
     16  0.249423D-03 -0.442110D-02  0.241631D-02  0.492426D-02  0.120210D-03
     17  0.689690D-04 -0.172462D-02  0.421820D-02  0.216183D-04  0.154732D-03
     18 -0.394255D-03  0.191340D-01 -0.279423D-01 -0.112333D-01 -0.771230D-03
     19 -0.218326D-03  0.756007D-02 -0.738569D-03  0.200631D-02  0.705099D-03
     20 -0.293463D-04  0.198865D-03 -0.152846D-02  0.723862D-05 -0.494486D-04
     21  0.392739D-03 -0.314608D-01  0.213392D-02 -0.155710D-01  0.188358D-02
     22  0.255736D-03 -0.424472D-02 -0.165278D-02  0.364495D-02  0.286739D-03
     23 -0.844611D-04  0.125313D-02  0.225546D-02 -0.241780D-03 -0.631174D-04
     24 -0.459242D-03  0.225768D-01  0.268235D-01 -0.968934D-02 -0.773778D-03
     25  0.157488D-02 -0.399991D-01  0.273351D-02 -0.385091D-02 -0.168027D-02
     26 -0.112539D-02  0.970518D-02  0.417776D-02 -0.833840D-02 -0.549500D-03
     27 -0.874395D-02  0.257461D-02 -0.769101D-03  0.193321D-01  0.435067D-02
     28 -0.105720D-03 -0.352576D-02 -0.299003D-03 -0.411506D-02 -0.118754D-02
     29 -0.779568D-04 -0.563694D-03  0.126821D-02  0.566294D-03  0.240001D-03
     30  0.979035D-03 -0.290983D-02  0.383761D-03 -0.173950D-02 -0.660866D-03
     31 -0.571136D-03 -0.188803D-02 -0.105648D-02 -0.849036D-03 -0.571931D-04
     32  0.336195D-03 -0.132192D-01  0.243972D-02  0.152530D-01  0.382468D-03
     33 -0.842298D-03  0.479050D-02 -0.660262D-03 -0.465614D-02 -0.128742D-03
     34 -0.160152D-02  0.189150D-03  0.603002D-03 -0.104423D-02  0.275413D-03
     35  0.105411D-02 -0.162315D-02  0.544126D-03  0.112189D-02 -0.332283D-04
     36 -0.963239D-04  0.248140D-02  0.102606D-02 -0.119304D-02 -0.106642D-03
     37 -0.338150D-04  0.220896D-02  0.598006D-03 -0.147529D-02  0.435838D-04
     38 -0.153158D-03  0.466209D-02 -0.140374D-02 -0.611028D-02 -0.957018D-04
     39  0.341584D-03 -0.589581D-03  0.101823D-02  0.818354D-03  0.844509D-04
     40 -0.878376D-04  0.223296D-03 -0.152039D-03 -0.178380D-02 -0.100255D-03
     41 -0.168783D-03  0.163947D-02  0.101672D-02 -0.145038D-02 -0.109527D-03
     42 -0.346972D-03 -0.657398D-03 -0.939814D-03  0.106222D-02 -0.716431D-04
               11            12            13            14            15 
     11  0.259866D-01
     12 -0.494352D-02  0.151761D+00
     13  0.329715D-03 -0.257088D-01  0.580804D+00
     14  0.283432D-02  0.113570D-02 -0.382734D-02  0.535754D+00
     15  0.860255D-03 -0.145320D-01  0.259123D-01 -0.122138D-02  0.503001D+00
     16 -0.154653D-03  0.223576D-03 -0.105849D+00  0.106698D+00  0.334937D-01
     17  0.180426D-03 -0.664697D-03  0.106336D+00 -0.225407D+00 -0.654246D-01
     18  0.888944D-03  0.622313D-03  0.358747D-01 -0.679604D-01 -0.682841D-01
     19 -0.258171D-03  0.195176D-02 -0.253845D+00  0.184229D-01 -0.118790D+00
     20  0.150124D-02 -0.433081D-04  0.188884D-01 -0.489266D-01  0.108250D-01
     21  0.267945D-03 -0.547932D-02 -0.115885D+00  0.101866D-01 -0.115447D+00
     22  0.270841D-03  0.256302D-03 -0.133417D+00 -0.120996D+00  0.337473D-01
     23  0.330300D-03  0.603506D-03 -0.120700D+00 -0.206297D+00  0.510379D-01
     24 -0.734203D-03  0.835622D-03  0.354410D-01  0.527463D-01 -0.601648D-01
     25  0.343855D-03  0.220487D-02  0.330372D-02 -0.530512D-03 -0.268549D-02
     26  0.104235D-01  0.363015D-03 -0.182202D-02 -0.615499D-02  0.198777D-02
     27  0.219240D-03 -0.815803D-03  0.277438D-02 -0.437043D-04 -0.464299D-03
     28  0.699458D-03  0.570794D-03  0.108733D-03 -0.217136D-03 -0.714546D-03
     29  0.698782D-04  0.265286D-04  0.341357D-03  0.269224D-03 -0.355253D-03
     30  0.498466D-03  0.279559D-03 -0.947179D-04  0.200463D-03 -0.649811D-03
     31 -0.153967D-02  0.781963D-04  0.916618D-04  0.343475D-03 -0.181159D-04
     32  0.106580D-02 -0.271593D-03  0.260476D-02 -0.118045D-02 -0.167352D-02
     33 -0.100673D-02 -0.101543D-04 -0.833849D-03  0.100979D-02  0.118561D-02
     34  0.122201D-02  0.275184D-03 -0.350322D-03 -0.483071D-04  0.401841D-03
     35 -0.222960D-03  0.141478D-03 -0.487598D-03  0.168240D-03 -0.698369D-03
     36  0.137374D-03  0.263554D-04 -0.177650D-03 -0.457994D-03  0.845375D-04
     37 -0.145048D-03 -0.884105D-04 -0.664719D-04  0.345589D-03  0.209812D-03
     38 -0.429283D-03  0.187397D-03 -0.133061D-02 -0.416989D-05  0.562852D-03
[...]
 Alpha virt. eigenvalues --    2.48038   2.48712   2.51291   2.53391   2.55163
 Alpha virt. eigenvalues --    2.56816   2.60247   2.61695   2.62505   2.67527
 Alpha virt. eigenvalues --    2.69440   2.71726   2.74969   2.81313   2.84627
 Alpha virt. eigenvalues --    2.92742   2.97700   2.98976   3.07868   3.11624
 Alpha virt. eigenvalues --    3.17910   3.22389   3.23228   3.34462   3.45780
 Alpha virt. eigenvalues --    3.54671   3.76815   3.81180   3.82667   3.88004
 Alpha virt. eigenvalues --    4.01502   4.02505   4.08258   4.42067   5.14139
 Alpha virt. eigenvalues --    5.47285   5.65350  23.78609  23.96381  24.03726
 Alpha virt. eigenvalues --   24.27958  50.01155
  Beta  occ. eigenvalues --  -19.60136 -10.56832 -10.56327 -10.56273 -10.54736
  Beta  occ. eigenvalues --   -1.06577  -0.92220  -0.82934  -0.75313  -0.62301
  Beta  occ. eigenvalues --   -0.57715  -0.52184  -0.50483  -0.49544  -0.47329
  Beta  occ. eigenvalues --   -0.45543  -0.44495  -0.41886  -0.35899  -0.33537
  Beta virt. eigenvalues --   -0.09747  -0.00788   0.01066   0.01247   0.02189
  Beta virt. eigenvalues --    0.03697   0.04067   0.04283   0.05110   0.05939
  Beta virt. eigenvalues --    0.07931   0.08492   0.09537   0.10435   0.10945
  Beta virt. eigenvalues --    0.11839   0.13312   0.13418   0.13935   0.14053
  Beta virt. eigenvalues --    0.14491   0.14997   0.15702   0.16263   0.16800
  Beta virt. eigenvalues --    0.17580   0.20635   0.21346   0.21716   0.22838
  Beta virt. eigenvalues --    0.24664   0.26745   0.27250   0.28214   0.29341
  Beta virt. eigenvalues --    0.30436   0.31894   0.32372   0.34176   0.38036
  Beta virt. eigenvalues --    0.39119   0.40393   0.42233   0.46549   0.48876
  Beta virt. eigenvalues --    0.50607   0.51042   0.52571   0.57702   0.58804
  Beta virt. eigenvalues --    0.59339   0.61777   0.62627   0.64666   0.66492
  Beta virt. eigenvalues --    0.69347   0.69517   0.70521   0.72280   0.74164
  Beta virt. eigenvalues --    0.75338   0.77627   0.82955   0.85412   0.87827
  Beta virt. eigenvalues --    0.93108   0.95828   1.01539   1.04113   1.07180
  Beta virt. eigenvalues --    1.12860   1.13688   1.16869   1.19123   1.26459
  Beta virt. eigenvalues --    1.28845   1.38666   1.40927   1.44243   1.45422
  Beta virt. eigenvalues --    1.49324   1.49818   1.51407   1.53846   1.56347
  Beta virt. eigenvalues --    1.59232   1.61317   1.64556   1.66357   1.67783
  Beta virt. eigenvalues --    1.68847   1.70546   1.72507   1.79472   1.80056
  Beta virt. eigenvalues --    1.82141   1.87399   1.89682   1.93365   1.97883
  Beta virt. eigenvalues --    2.02379   2.07484   2.09992   2.11851   2.14321
  Beta virt. eigenvalues --    2.16983   2.24037   2.30151   2.32406   2.38282
  Beta virt. eigenvalues --    2.41126   2.48302   2.49040   2.51332   2.53210
  Beta virt. eigenvalues --    2.55387   2.57681   2.60924   2.62090   2.63296
  Beta virt. eigenvalues --    2.67694   2.69183   2.71822   2.75503   2.81579
  Beta virt. eigenvalues --    2.85158   2.92068   2.97834   3.00336   3.09866
  Beta virt. eigenvalues --    3.12419   3.18289   3.23091   3.24958   3.35021
  Beta virt. eigenvalues --    3.48109   3.55068   3.78109   3.82404   3.82981
  Beta virt. eigenvalues --    3.88306   4.02218   4.03788   4.09279   4.43259
  Beta virt. eigenvalues --    5.15252   5.49497   5.66687  23.78827  23.97235
  Beta virt. eigenvalues --   24.03804  24.28249  50.00442
          Condensed to atoms (all electrons):
               1          2          3          4          5          6
     1  C    7.890738   0.551284  -1.476245  -0.231137   0.165841  -0.066694
     2  H    0.551284   0.497176  -0.158001  -0.014171   0.014691  -0.002271
     3  C   -1.476245  -0.158001   6.618933   0.509959   0.015952   0.009582
     4  H   -0.231137  -0.014171   0.509959   0.514431  -0.034454   0.005427
     5  C    0.165841   0.014691   0.015952  -0.034454   5.516844   0.417115
     6  H   -0.066694  -0.002271   0.009582   0.005427   0.417115   0.561389
     7  H    0.063972   0.001099  -0.094355   0.002254   0.382274  -0.037305
     8  H    0.106804   0.003625  -0.131074  -0.017732   0.405124  -0.066086
     9  C   -0.991314  -0.090704   0.656735   0.054204  -0.186835   0.016048
    10  H   -0.194675  -0.024853   0.122928   0.008214  -0.007471   0.002167
    11  H   -0.054624   0.000154   0.004076   0.000148  -0.010255   0.000474
    12  H    0.168646   0.015813  -0.143886  -0.009184   0.018436  -0.006470
    13  O   -0.082720  -0.001082   0.050501   0.002587  -0.003968   0.003451
    14  H    0.118085   0.006188  -0.076986  -0.003405   0.020688  -0.000969
               7          8          9         10         11         12
     1  C    0.063972   0.106804  -0.991314  -0.194675  -0.054624   0.168646
     2  H    0.001099   0.003625  -0.090704  -0.024853   0.000154   0.015813
     3  C   -0.094355  -0.131074   0.656735   0.122928   0.004076  -0.143886
     4  H    0.002254  -0.017732   0.054204   0.008214   0.000148  -0.009184
     5  C    0.382274   0.405124  -0.186835  -0.007471  -0.010255   0.018436
     6  H   -0.037305  -0.066086   0.016048   0.002167   0.000474  -0.006470
     7  H    0.548917  -0.024004  -0.021849   0.000424  -0.004752   0.003370
     8  H   -0.024004   0.575409  -0.027066  -0.003568   0.001266   0.005704
     9  C   -0.021849  -0.027066   6.596071   0.438194   0.146217   0.273409
    10  H    0.000424  -0.003568   0.438194   0.523018  -0.005923  -0.051501
    11  H   -0.004752   0.001266   0.146217  -0.005923   0.407030  -0.027941
    12  H    0.003370   0.005704   0.273409  -0.051501  -0.027941   0.571563
    13  O   -0.009537  -0.011551   0.017264   0.002829   0.244372  -0.014243
    14  H    0.002951  -0.000024  -0.036872  -0.002370  -0.060820   0.006028
              13         14
     1  C   -0.082720   0.118085
     2  H   -0.001082   0.006188
     3  C    0.050501  -0.076986
     4  H    0.002587  -0.003405
     5  C   -0.003968   0.020688
     6  H    0.003451  -0.000969
     7  H   -0.009537   0.002951
     8  H   -0.011551  -0.000024
     9  C    0.017264  -0.036872
    10  H    0.002829  -0.002370
    11  H    0.244372  -0.060820
    12  H   -0.014243   0.006028
    13  O    7.977379   0.299122
    14  H    0.299122   0.511603
          Atomic-Atomic Spin Densities.
               1          2          3          4          5          6
     1  C   -0.282720  -0.009004   0.140532   0.011552  -0.022313   0.005799
     2  H   -0.009004   0.010848  -0.005811  -0.000889   0.000709  -0.000025
     3  C    0.140532  -0.005811   0.359138  -0.000993  -0.032133  -0.010788
     4  H    0.011552  -0.000889  -0.000993  -0.013480  -0.003307   0.000564
     5  C   -0.022313   0.000709  -0.032133  -0.003307  -0.009188   0.007299
     6  H    0.005799  -0.000025  -0.010788   0.000564   0.007299   0.019248
     7  H   -0.002582  -0.000283   0.005374   0.000558  -0.001823   0.000216
     8  H   -0.005381   0.000277  -0.015152  -0.001147   0.012579  -0.005602
     9  C   -0.001531   0.019419  -0.168524  -0.009789   0.036788  -0.004463
    10  H    0.020081  -0.002566   0.005082   0.000483  -0.001415   0.000109
    11  H   -0.040865  -0.002905   0.026043   0.000912  -0.005837  -0.000064
    12  H    0.003482  -0.002683   0.016224   0.001429  -0.002706   0.001049
    13  O    0.026744  -0.001643   0.015283   0.000666  -0.006033   0.000255
    14  H   -0.003707   0.000931  -0.012130  -0.000709   0.004151  -0.000436
               7          8          9         10         11         12
     1  C   -0.002582  -0.005381  -0.001531   0.020081  -0.040865   0.003482
     2  H   -0.000283   0.000277   0.019419  -0.002566  -0.002905  -0.002683
     3  C    0.005374  -0.015152  -0.168524   0.005082   0.026043   0.016224
     4  H    0.000558  -0.001147  -0.009789   0.000483   0.000912   0.001429
     5  C   -0.001823   0.012579   0.036788  -0.001415  -0.005837  -0.002706
     6  H    0.000216  -0.005602  -0.004463   0.000109  -0.000064   0.001049
     7  H    0.001646  -0.000966  -0.001700   0.000310   0.000365  -0.000706
     8  H   -0.000966   0.019529   0.008515  -0.000199  -0.000619  -0.001126
     9  C   -0.001700   0.008515   0.877832  -0.045774   0.074067  -0.038052
    10  H    0.000310  -0.000199  -0.045774  -0.009834   0.002240   0.011441
    11  H    0.000365  -0.000619   0.074067   0.002240  -0.108990   0.007731
    12  H   -0.000706  -0.001126  -0.038052   0.011441   0.007731  -0.018208
    13  O    0.000864  -0.000497  -0.129123   0.006121  -0.003840   0.006037
    14  H   -0.000337   0.001545   0.015967  -0.001297   0.006434  -0.001766
              13         14
     1  C    0.026744  -0.003707
     2  H   -0.001643   0.000931
     3  C    0.015283  -0.012130
     4  H    0.000666  -0.000709
     5  C   -0.006033   0.004151
     6  H    0.000255  -0.000436
     7  H    0.000864  -0.000337
     8  H   -0.000497   0.001545
     9  C   -0.129123   0.015967
    10  H    0.006121  -0.001297
    11  H   -0.003840   0.006434
    12  H    0.006037  -0.001766
    13  O    0.377777  -0.001775
    14  H   -0.001775  -0.010021
 Mulliken charges and spin densities:
               1          2
     1  C    0.032038  -0.159912
     2  H    0.201054   0.006374
     3  C    0.091881   0.322144
     4  H    0.212859  -0.014150
     5  C   -0.713982  -0.023229
     6  H    0.164143   0.013161
     7  H    0.186541   0.000937
     8  H    0.183173   0.011756
     9  C   -0.843502   0.633632
    10  H    0.192584  -0.015218
    11  H    0.360578  -0.045328
    12  H    0.190255  -0.017853
    13  O   -0.474404   0.290836
    14  H    0.216782  -0.003150
 Sum of Mulliken charges =  -0.00000   1.00000
 Mulliken charges and spin densities with hydrogens summed into heavy atoms:
               1          2
     1  C    0.233092  -0.153538
     3  C    0.304740   0.307993
     5  C   -0.180125   0.002625
     9  C   -0.460662   0.600561
    13  O    0.102956   0.242359
 APT charges:
               1
     1  C   -0.292492
     2  H    0.486517
     3  C   -0.318920
     4  H    0.514957
     5  C   -1.288993
     6  H    0.536537
     7  H    0.240647
     8  H    0.436254
     9  C   -1.225343
    10  H    0.541674
    11  H    0.194021
    12  H    0.358456
    13  O   -0.391689
    14  H    0.208376
 Sum of APT charges =  -0.00000
 APT charges with hydrogens summed into heavy atoms:
               1
     1  C    0.194024
     3  C    0.196037
     5  C   -0.075556
     9  C   -0.325213
    13  O    0.010708
 Electronic spatial extent (au):  <R**2>=            580.8155
 Charge=             -0.0000 electrons
 Dipole moment (field-independent basis, Debye):
    X=              2.2601    Y=             -2.6599    Z=              1.0554  Tot=              3.6465
 Quadrupole moment (field-independent basis, Debye-Ang):
   XX=            -32.6330   YY=            -39.2806   ZZ=            -32.3237
   XY=              5.8232   XZ=             -2.1012   YZ=              2.5317
 Traceless Quadrupole moment (field-independent basis, Debye-Ang):
   XX=              2.1128   YY=             -4.5349   ZZ=              2.4221
   XY=              5.8232   XZ=             -2.1012   YZ=              2.5317
 Octapole moment (field-independent basis, Debye-Ang**2):
  XXX=              1.1264  YYY=              1.0147  ZZZ=              4.1180  XYY=             10.9056
  XXY=             -8.0581  XXZ=              2.4707  XZZ=             -0.2172  YZZ=             -1.2118
  YYZ=              1.6454  XYZ=             -2.4350
 Hexadecapole moment (field-independent basis, Debye-Ang**3):
 XXXX=           -337.2866 YYYY=           -269.2457 ZZZZ=           -173.8919 XXXY=             72.7247
 XXXZ=             21.6237 YYYX=             87.3537 YYYZ=             33.1127 ZZZX=             25.0908
 ZZZY=             20.5252 XXYY=           -114.8391 XXZZ=            -84.2741 YYZZ=            -75.3940
 XXYZ=              8.5725 YYXZ=              1.2211 ZZXY=             23.4777
 N-N= 1.712670865938D+02 E-N=-8.852458325709D+02  KE= 2.319076989119D+02
  Exact polarizability:   0.000   0.000   0.000   0.000   0.000   0.000
 Approx polarizability:  85.297  -7.121  69.499  -3.117  -5.778  62.739
                          Isotropic Fermi Contact Couplings
        Atom                 a.u.       MegaHertz       Gauss      10(-4) cm-1
     1  C(13)             -0.03726     -41.89020     -14.94746     -13.97307
     2  H(1)               0.00273      12.18873       4.34924       4.06572
     3  C(13)              0.03970      44.62686      15.92397      14.88592
     4  H(1)              -0.00503     -22.49446      -8.02658      -7.50334
     5  C(13)             -0.01027     -11.54460      -4.11940      -3.85086
     6  H(1)               0.00689      30.81316      10.99490      10.27816
     7  H(1)               0.00006       0.24649       0.08795       0.08222
     8  H(1)               0.00620      27.70423       9.88556       9.24114
     9  C(13)              0.17348     195.02201      69.58870      65.05234
    10  H(1)              -0.00483     -21.58671      -7.70267      -7.20055
    11  H(1)              -0.02582    -115.41311     -41.18227     -38.49767
    12  H(1)              -0.00576     -25.75201      -9.18896      -8.58994
    13  O(17)              0.07050     -42.73763     -15.24985     -14.25574
    14  H(1)              -0.00452     -20.21800      -7.21429      -6.74400
 --------------------------------------------------------
       Center         ----  Spin Dipole Couplings  ----
                      3XX-RR        3YY-RR        3ZZ-RR
 --------------------------------------------------------
     1   Atom        0.074751     -0.121673      0.046922
     2   Atom        0.007944     -0.006398     -0.001546
     3   Atom       -0.158601      0.325023     -0.166422
     4   Atom        0.012317     -0.003059     -0.009257
     5   Atom       -0.002548      0.004724     -0.002176
     6   Atom        0.000072     -0.002158      0.002086
     7   Atom       -0.000227     -0.004071      0.004298
     8   Atom        0.001224     -0.002854      0.001630
     9   Atom       -0.331226      0.605295     -0.274069
    10   Atom        0.014254     -0.007200     -0.007054
    11   Atom       -0.091907      0.162964     -0.071057
    12   Atom       -0.041391      0.008398      0.032993
    13   Atom       -0.634794      1.114782     -0.479988
    14   Atom        0.042481     -0.012630     -0.029851
 --------------------------------------------------------
                        XY            XZ            YZ
 --------------------------------------------------------
     1   Atom       -0.017480      0.005101     -0.012411
     2   Atom       -0.002032      0.002075     -0.000837
     3   Atom        0.005495      0.005791      0.019845
     4   Atom       -0.002688      0.022151     -0.001515
     5   Atom       -0.000102     -0.002700      0.003101
     6   Atom       -0.002921     -0.003436      0.002538
     7   Atom       -0.002154     -0.003773      0.001151
     8   Atom        0.001249     -0.004284     -0.002433
     9   Atom       -0.110508      0.025244     -0.255835
    10   Atom        0.004854     -0.044994     -0.015463
    11   Atom        0.007588     -0.002864     -0.085204
    12   Atom       -0.000413      0.004780      0.027133
    13   Atom        0.232700     -0.083685     -0.552236
    14   Atom        0.010904      0.036699     -0.006436
 --------------------------------------------------------


 ---------------------------------------------------------------------------------
              Anisotropic Spin Dipole Couplings in Principal Axis System
 ---------------------------------------------------------------------------------

       Atom             a.u.   MegaHertz   Gauss  10(-4) cm-1        Axes

              Baa    -0.1240   -16.646    -5.940    -5.553  0.0856  0.9939  0.0696
     1 C(13)  Bbb     0.0465     6.237     2.226     2.081 -0.2075 -0.0505  0.9769
              Bcc     0.0776    10.409     3.714     3.472  0.9745 -0.0981  0.2019
 
              Baa    -0.0067    -3.597    -1.283    -1.200  0.1209  0.9865  0.1106
     2 H(1)   Bbb    -0.0019    -1.038    -0.371    -0.346 -0.2207 -0.0819  0.9719
              Bcc     0.0087     4.635     1.654     1.546  0.9678 -0.1419  0.2078
 
              Baa    -0.1700   -22.807    -8.138    -7.608 -0.4419 -0.0310  0.8965
     3 C(13)  Bbb    -0.1559   -20.924    -7.466    -6.979  0.8970 -0.0284  0.4411
              Bcc     0.3259    43.731    15.604    14.587  0.0118  0.9991  0.0404
 
              Baa    -0.0231   -12.330    -4.400    -4.113 -0.5305 -0.0071  0.8476
     4 H(1)   Bbb    -0.0034    -1.803    -0.643    -0.601  0.0842  0.9946  0.0610
              Bcc     0.0265    14.133     5.043     4.714  0.8435 -0.1037  0.5271
 
              Baa    -0.0055    -0.740    -0.264    -0.247  0.6534 -0.2135  0.7263
     5 C(13)  Bbb    -0.0005    -0.072    -0.026    -0.024  0.7454  0.3491 -0.5679
              Bcc     0.0061     0.812     0.290     0.271 -0.1323  0.9125  0.3872
 
              Baa    -0.0042    -2.228    -0.795    -0.743  0.5429  0.8388 -0.0420
     6 H(1)   Bbb    -0.0022    -1.163    -0.415    -0.388  0.6104 -0.3597  0.7057
              Bcc     0.0064     3.391     1.210     1.131 -0.5768  0.4088  0.7072
 
              Baa    -0.0051    -2.706    -0.966    -0.903  0.4520  0.8890  0.0728
     7 H(1)   Bbb    -0.0018    -0.939    -0.335    -0.313  0.7339 -0.4170  0.5362
              Bcc     0.0068     3.645     1.301     1.216 -0.5071  0.1889  0.8409
 
              Baa    -0.0041    -2.166    -0.773    -0.723  0.2319  0.8190  0.5248
     8 H(1)   Bbb    -0.0024    -1.281    -0.457    -0.427  0.7260 -0.5048  0.4670
              Bcc     0.0065     3.447     1.230     1.150 -0.6474 -0.2727  0.7117
 
              Baa    -0.3479   -46.679   -16.656   -15.570  0.7319  0.2545  0.6321
     9 C(13)  Bbb    -0.3391   -45.498   -16.235   -15.177 -0.6724  0.1192  0.7306
              Bcc     0.6869    92.177    32.891    30.747 -0.1106  0.9597 -0.2584
 
              Baa    -0.0450   -23.986    -8.559    -8.001  0.5735  0.2462  0.7813
    10 H(1)   Bbb    -0.0079    -4.223    -1.507    -1.409 -0.3255  0.9437 -0.0585
              Bcc     0.0529    28.209    10.066     9.410  0.7518  0.2207 -0.6214
 
              Baa    -0.0988   -52.722   -18.812   -17.586  0.0561  0.3075  0.9499
    11 H(1)   Bbb    -0.0921   -49.150   -17.538   -16.395  0.9980 -0.0445 -0.0445
              Bcc     0.1909   101.872    36.350    33.981  0.0286  0.9505 -0.3094
 
              Baa    -0.0418   -22.308    -7.960    -7.441  0.9952  0.0529 -0.0828
    12 H(1)   Bbb    -0.0088    -4.712    -1.681    -1.572 -0.0892  0.8402 -0.5349
              Bcc     0.0506    27.020     9.641     9.013  0.0412  0.5397  0.8409
 
              Baa    -0.6717    48.603    17.343    16.212  0.8719  0.0373  0.4882
    13 O(17)  Bbb    -0.6469    46.810    16.703    15.614 -0.4733  0.3198  0.8208
              Bcc     1.3186   -95.412   -34.045   -31.826  0.1255  0.9467 -0.2965
 
              Baa    -0.0482   -25.692    -9.168    -8.570 -0.3891  0.2785  0.8781
    14 H(1)   Bbb    -0.0105    -5.604    -2.000    -1.869  0.0102  0.9544 -0.2983
              Bcc     0.0587    31.296    11.167    10.439  0.9212  0.1071  0.3742
 

 ---------------------------------------------------------------------------------


 This type of calculation cannot be archived.


 WE TEND TO MEET ANY NEW SITUATION BY REORGANIZING. IT CAN BE A
 WONDERFUL METHOD FOR CREATING THE ILLUSION OF PROGRESS WHILE PRODUCING
 CONFUSION, INEFFICIENCY, AND DEMORALIZATION.
     -- PETRONIUS ARBITER, 210 B.C.
 Job cpu time:       0 days 10 hours 37 minutes 52.5 seconds.
 Elapsed time:       0 days  0 hours 57 minutes 32.7 seconds.
 File lengths (MBytes):  RWF=    139 Int=      0 D2E=      0 Chk=      7 Scr=      2
 Normal termination of Gaussian 16 at Wed Mar  3 12:08:29 2021.
