 Entering Gaussian System, Link 0=g16
 Input=/home/zxc/alkene/bhand/vtst-abs/c4-1/abs3/irc.gjf
 Output=/home/zxc/alkene/bhand/vtst-abs/c4-1/abs3/irc.log
 Initial command:
 /opt/g16/l1.exe "/home/tmp/Gau-38263.inp" -scrdir="/home/tmp/"
 Entering Link 1 = /opt/g16/l1.exe PID=     38264.
  
 Copyright (c) 1988,1990,1992,1993,1995,1998,2003,2009,2016,
            Gaussian, Inc.  All Rights Reserved.
  
 This is part of the Gaussian(R) 16 program.  It is based on
 the Gaussian(R) 09 system (copyright 2009, Gaussian, Inc.),
 the Gaussian(R) 03 system (copyright 2003, Gaussian, Inc.),
 the Gaussian(R) 98 system (copyright 1998, Gaussian, Inc.),
 the Gaussian(R) 94 system (copyright 1995, Gaussian, Inc.),
 the Gaussian 92(TM) system (copyright 1992, Gaussian, Inc.),
 the Gaussian 90(TM) system (copyright 1990, Gaussian, Inc.),
 the Gaussian 88(TM) system (copyright 1988, Gaussian, Inc.),
 the Gaussian 86(TM) system (copyright 1986, Carnegie Mellon
 University), and the Gaussian 82(TM) system (copyright 1983,
 Carnegie Mellon University). Gaussian is a federally registered
 trademark of Gaussian, Inc.
  
 This software contains proprietary and confidential information,
 including trade secrets, belonging to Gaussian, Inc.
  
 This software is provided under written license and may be
 used, copied, transmitted, or stored only in accord with that
 written license.
  
 The following legend is applicable only to US Government
 contracts under FAR:
  
                    RESTRICTED RIGHTS LEGEND
  
 Use, reproduction and disclosure by the US Government is
 subject to restrictions as set forth in subparagraphs (a)
 and (c) of the Commercial Computer Software - Restricted
 Rights clause in FAR 52.227-19.
  
 Gaussian, Inc.
 340 Quinnipiac St., Bldg. 40, Wallingford CT 06492
  
  
 ---------------------------------------------------------------
 Warning -- This program may not be used in any manner that
 competes with the business of Gaussian, Inc. or will provide
 assistance to any competitor of Gaussian, Inc.  The licensee
 of this program is prohibited from giving any competitor of
 Gaussian, Inc. access to this program.  By using this program,
 the user acknowledges that Gaussian, Inc. is engaged in the
 business of creating and licensing software in the field of
 computational chemistry and represents and warrants to the
 licensee that it is not a competitor of Gaussian, Inc. and that
 it will not use this program in any manner prohibited above.
 ---------------------------------------------------------------
  

 Cite this work as:
 Gaussian 16, Revision A.03,
 M. J. Frisch, G. W. Trucks, H. B. Schlegel, G. E. Scuseria, 
 M. A. Robb, J. R. Cheeseman, G. Scalmani, V. Barone, 
 G. A. Petersson, H. Nakatsuji, X. Li, M. Caricato, A. V. Marenich, 
 J. Bloino, B. G. Janesko, R. Gomperts, B. Mennucci, H. P. Hratchian, 
 J. V. Ortiz, A. F. Izmaylov, J. L. Sonnenberg, D. Williams-Young, 
 F. Ding, F. Lipparini, F. Egidi, J. Goings, B. Peng, A. Petrone, 
 T. Henderson, D. Ranasinghe, V. G. Zakrzewski, J. Gao, N. Rega, 
 G. Zheng, W. Liang, M. Hada, M. Ehara, K. Toyota, R. Fukuda, 
 J. Hasegawa, M. Ishida, T. Nakajima, Y. Honda, O. Kitao, H. Nakai, 
 T. Vreven, K. Throssell, J. A. Montgomery, Jr., J. E. Peralta, 
 F. Ogliaro, M. J. Bearpark, J. J. Heyd, E. N. Brothers, K. N. Kudin, 
 V. N. Staroverov, T. A. Keith, R. Kobayashi, J. Normand, 
 K. Raghavachari, A. P. Rendell, J. C. Burant, S. S. Iyengar, 
 J. Tomasi, M. Cossi, J. M. Millam, M. Klene, C. Adamo, R. Cammi, 
 J. W. Ochterski, R. L. Martin, K. Morokuma, O. Farkas, 
 J. B. Foresman, and D. J. Fox, Gaussian, Inc., Wallingford CT, 2016.
 
 ******************************************
 Gaussian 16:  ES64L-G16RevA.03 25-Dec-2016
                 3-Mar-2021 
 ******************************************
 %mem=34GB
 %nprocshared=22
 Will use up to   22 processors via shared memory.
 ----------------------------------------------------------------------
 # m062x/6-311++g(d,p) irc=(calcall,stepsize=3,maxpoints=10) iop(7/33=1
 )
 ----------------------------------------------------------------------
 1/10=4,18=10,26=3,38=1,39=3,42=10,44=3,71=1,172=1/1,23;
 2/12=2,17=6,18=5,29=1,40=1/2;
 3/5=4,6=6,7=1111,11=2,25=1,30=1,71=2,74=-55,140=1/1,2,3;
 4//1;
 5/5=2,38=5/2;
 8/6=4,10=90,11=11/1;
 11/6=1,8=1,9=11,15=111,16=1/1,2,10;
 10/6=1,13=1/2;
 6/7=2,8=2,9=2,10=2,18=1,28=1/1;
 7/10=1,25=1,33=1/1,2,3,16;
 1/10=4,18=10,26=3,39=3,42=10,44=3,71=1/23(2);
 2/29=1/2;
 99/5=20/99;
 2/29=1/2;
 3/5=4,6=6,7=1111,11=2,25=1,30=1,71=2,74=-55,140=1/1,2,3;
 4/5=5,16=3,69=1/1;
 5/5=2,38=5/2;
 8/6=4,10=90,11=11/1;
 11/6=1,8=1,9=11,15=111,16=1/1,2,10;
 10/6=1,13=1/2;
 7/10=1,25=1,33=1/1,2,3,16;
 1/10=4,18=10,26=3,39=3,42=10,44=3,71=1/23(-8);
 2/29=1/2;
 6/7=2,8=2,9=2,10=2,18=1,19=2,28=1/1;
 99/5=20/99;
 -------------------
 Title Card Required
 -------------------
 Symbolic Z-matrix:
 Charge =  0 Multiplicity = 2
 C                    -1.80231  -0.73442  -0.43724 
 H                    -1.94818   0.06105  -1.15969 
 H                    -2.47561  -1.58106  -0.49429 
 C                    -0.85508  -0.67115   0.4963 
 H                    -0.75732  -1.4912    1.20416 
 C                     0.13012   0.43764   0.65725 
 H                     1.17335  -0.01518   0.45201 
 H                     0.20963   0.72692   1.70998 
 C                    -0.03845   1.6386   -0.25353 
 H                    -1.00386   2.12356  -0.08298 
 H                     0.74892   2.37047  -0.07206 
 H                     0.01318   1.34605  -1.30461 
 O                     2.22836  -0.78707  -0.27306 
 H                     1.60737  -1.26808  -0.84473 
 
 IRC-IRC-IRC-IRC-IRC-IRC-IRC-IRC-IRC-IRC-IRC-IRC-IRC-IRC-IRC-IRC-IRC-IRC
 ------------------------------------------------------------------------
 INPUT DATA FOR L123
 ------------------------------------------------------------------------
 GENERAL PARAMETERS:
 Follow reaction path in both directions.
 Maximum points per path      =  10
 Step size                    =   0.030 bohr
 Integration scheme           = HPC                                 
    Redo corrector integration= Yes                                 
    DWI Weight Power          =  2
    DWI will use Hessian update vectors when possible.
    Max correction cycles     =  20
 Initial Hessian              = CalcFC
 Hessian evaluation           = Analytic at all predictor steps
                              = Update at all corrector steps
 Hessian updating method      = Bofill                              
 ------------------------------------------------------------------------
 IRC-IRC-IRC-IRC-IRC-IRC-IRC-IRC-IRC-IRC-IRC-IRC-IRC-IRC-IRC-IRC-IRC-IRC
                          Input orientation:                          
 ---------------------------------------------------------------------
 Center     Atomic      Atomic             Coordinates (Angstroms)
 Number     Number       Type             X           Y           Z
 ---------------------------------------------------------------------
      1          6           0       -1.802313   -0.734421   -0.437235
      2          1           0       -1.948181    0.061054   -1.159691
      3          1           0       -2.475605   -1.581059   -0.494291
      4          6           0       -0.855079   -0.671147    0.496299
      5          1           0       -0.757321   -1.491200    1.204155
      6          6           0        0.130123    0.437637    0.657249
      7          1           0        1.173351   -0.015179    0.452009
      8          1           0        0.209631    0.726921    1.709983
      9          6           0       -0.038453    1.638597   -0.253532
     10          1           0       -1.003862    2.123555   -0.082978
     11          1           0        0.748924    2.370467   -0.072056
     12          1           0        0.013178    1.346049   -1.304612
     13          8           0        2.228355   -0.787066   -0.273060
     14          1           0        1.607372   -1.268076   -0.844729
 ---------------------------------------------------------------------
                    Distance matrix (angstroms):
                    1          2          3          4          5
     1  C    0.000000
     2  H    1.084436   0.000000
     3  H    1.083224   1.848640   0.000000
     4  C    1.331443   2.115016   2.106018   0.000000
     5  H    2.087794   3.068454   2.417704   1.087706   0.000000
     6  C    2.511160   2.786114   3.491561   1.491955   2.192504
     7  H    3.187890   3.513880   4.081953   2.132319   2.543984
     8  H    3.285420   3.651652   4.170862   2.135704   2.472027
     9  C    2.962459   2.637580   4.045227   2.562039   3.526649
    10  H    2.988486   2.510968   4.007414   2.857981   3.844990
    11  H    4.035157   3.713585   5.117658   3.485293   4.337045
    12  H    2.894254   2.349286   3.926655   2.840111   3.864914
    13  O    4.034354   4.353031   4.775626   3.180081   3.404736
    14  H    3.475168   3.808903   4.109923   2.866766   3.136795
                    6          7          8          9         10
     6  C    0.000000
     7  H    1.155634   0.000000
     8  H    1.094649   1.749848   0.000000
     9  C    1.516656   2.168232   2.179011   0.000000
    10  H    2.162447   3.098492   2.576405   1.093749   0.000000
    11  H    2.156532   2.479131   2.483494   1.090197   1.770125
    12  H    2.165130   2.506922   3.083780   1.092254   1.769541
    13  O    2.601528   1.494847   3.209340   3.320036   4.353742
    14  H    2.710657   1.854631   3.529907   3.392197   4.347639
                   11         12         13         14
    11  H    0.000000
    12  H    1.763505   0.000000
    13  O    3.492726   3.243654   0.000000
    14  H    3.817454   3.096223   0.971492   0.000000
 Symmetry turned off by external request.
 Stoichiometry    C4H9O(2)
 Framework group  C1[X(C4H9O)]
 Deg. of freedom    36
 Full point group                 C1      NOp   1
 Rotational constants (GHZ):           5.2584993           3.0692956           2.3102788
 Standard basis: 6-311++G(d,p) (5D, 7F)
   173 basis functions,   261 primitive gaussians,   178 cartesian basis functions
    21 alpha electrons       20 beta electrons
       nuclear repulsion energy       171.1193882457 Hartrees.
 NAtoms=   14 NActive=   14 NUniq=   14 SFac= 1.00D+00 NAtFMM=   60 NAOKFM=F Big=F
 Integral buffers will be    131072 words long.
 Raffenetti 2 integral format.
 Two-electron integral symmetry is turned off.
 One-electron integrals computed using PRISM.
 NBasis=   173 RedAO= T EigKep=  1.39D-05  NBF=   173
 NBsUse=   173 1.00D-06 EigRej= -1.00D+00 NBFU=   173
 ExpMin= 3.60D-02 ExpMax= 8.59D+03 ExpMxC= 1.30D+03 IAcc=3 IRadAn=         5 AccDes= 0.00D+00
 Harris functional with IExCor= 1009 and IRadAn=       5 diagonalized for initial guess.
 HarFok:  IExCor= 1009 AccDes= 0.00D+00 IRadAn=         5 IDoV= 1 UseB2=F ITyADJ=14
 ICtDFT=  3500011 ScaDFX=  1.000000  1.000000  1.000000  1.000000
 FoFCou: FMM=F IPFlag=           0 FMFlag=      100000 FMFlg1=           0
         NFxFlg=           0 DoJE=T BraDBF=F KetDBF=T FulRan=T
         wScrn=  0.000000 ICntrl=       500 IOpCl=  0 I1Cent=   200000004 NGrid=           0
         NMat0=    1 NMatS0=      1 NMatT0=    0 NMatD0=    1 NMtDS0=    0 NMtDT0=    0
 Symmetry not used in FoFCou.
 Initial guess <Sx>= 0.0000 <Sy>= 0.0000 <Sz>= 0.5000 <S**2>= 0.7500 S= 0.5000
 Requested convergence on RMS density matrix=1.00D-08 within 128 cycles.
 Requested convergence on MAX density matrix=1.00D-06.
 Requested convergence on             energy=1.00D-06.
 No special actions if energy rises.
 Restarting incremental Fock formation.
 SCF Done:  E(UM062X) =  -232.900738470     A.U. after   21 cycles
            NFock= 21  Conv=0.34D-08     -V/T= 2.0039
 <Sx>= 0.0000 <Sy>= 0.0000 <Sz>= 0.5000 <S**2>= 0.7587 S= 0.5043
 <L.S>=  0.00000000000    
 Annihilation of the first spin contaminant:
 S**2 before annihilation     0.7587,   after     0.7500
 DoSCS=F DFT=T ScalE2(SS,OS)=  1.000000  1.000000
 Range of M.O.s used for correlation:     1   173
 NBasis=   173 NAE=    21 NBE=    20 NFC=     0 NFV=     0
 NROrb=    173 NOA=    21 NOB=    20 NVA=   152 NVB=   153

 **** Warning!!: The largest alpha MO coefficient is  0.91623345D+02


 **** Warning!!: The largest beta MO coefficient is  0.85910553D+02

 Symmetrizing basis deriv contribution to polar:
 IMax=3 JMax=2 DiffMx= 0.00D+00
 G2DrvN: will do    15 centers at a time, making    1 passes.
 Calling FoFCou, ICntrl=  3107 FMM=F I1Cent=   0 AccDes= 0.00D+00.
 End of G2Drv F.D. properties file   721 does not exist.
 End of G2Drv F.D. properties file   722 does not exist.
 End of G2Drv F.D. properties file   788 does not exist.
          IDoAtm=11111111111111
          Differentiating once with respect to nuclear coordinates.
 Keep R1 and R2 ints in memory in canonical form, NReq=248598798.
          There are    45 degrees of freedom in the 1st order CPHF.  IDoFFX=6 NUNeed=     0.
     39 vectors produced by pass  0 Test12= 1.39D-14 2.22D-09 XBig12= 1.13D-01 1.20D-01.
 AX will form    39 AO Fock derivatives at one time.
     39 vectors produced by pass  1 Test12= 1.39D-14 2.22D-09 XBig12= 9.41D-03 2.81D-02.
     39 vectors produced by pass  2 Test12= 1.39D-14 2.22D-09 XBig12= 1.95D-04 2.56D-03.
     39 vectors produced by pass  3 Test12= 1.39D-14 2.22D-09 XBig12= 2.32D-06 3.02D-04.
     39 vectors produced by pass  4 Test12= 1.39D-14 2.22D-09 XBig12= 2.00D-08 1.19D-05.
     39 vectors produced by pass  5 Test12= 1.39D-14 2.22D-09 XBig12= 1.68D-10 1.38D-06.
     35 vectors produced by pass  6 Test12= 1.39D-14 2.22D-09 XBig12= 1.43D-12 1.25D-07.
      7 vectors produced by pass  7 Test12= 1.39D-14 2.22D-09 XBig12= 7.62D-15 8.10D-09.
 InvSVY:  IOpt=1 It=  1 EMax= 1.22D-15
 Solved reduced A of dimension   276 with    39 vectors.
 End of Minotr F.D. properties file   721 does not exist.
 End of Minotr F.D. properties file   722 does not exist.
 End of Minotr F.D. properties file   788 does not exist.

 **********************************************************************

            Population analysis using the SCF density.

 **********************************************************************

 Alpha  occ. eigenvalues --  -19.66074 -10.55842 -10.55404 -10.54254 -10.53524
 Alpha  occ. eigenvalues --   -1.12258  -0.91927  -0.83305  -0.74155  -0.63187
 Alpha  occ. eigenvalues --   -0.57081  -0.55693  -0.53740  -0.50335  -0.47756
 Alpha  occ. eigenvalues --   -0.46570  -0.42583  -0.41510  -0.40997  -0.38663
 Alpha  occ. eigenvalues --   -0.31862
 Alpha virt. eigenvalues --   -0.00474   0.01198   0.01283   0.01802   0.03067
 Alpha virt. eigenvalues --    0.03813   0.04123   0.04581   0.06026   0.07556
 Alpha virt. eigenvalues --    0.09081   0.09720   0.10745   0.11956   0.12626
 Alpha virt. eigenvalues --    0.13032   0.13504   0.13802   0.14549   0.14621
 Alpha virt. eigenvalues --    0.14855   0.15582   0.16457   0.17320   0.18723
 Alpha virt. eigenvalues --    0.20167   0.20770   0.22033   0.23870   0.24652
 Alpha virt. eigenvalues --    0.24961   0.27083   0.27338   0.28994   0.29817
 Alpha virt. eigenvalues --    0.30446   0.31850   0.33659   0.37662   0.38094
 Alpha virt. eigenvalues --    0.40531   0.43054   0.46590   0.48651   0.48920
 Alpha virt. eigenvalues --    0.51233   0.55494   0.56914   0.58837   0.60883
 Alpha virt. eigenvalues --    0.62353   0.64031   0.65655   0.67513   0.69277
 Alpha virt. eigenvalues --    0.70279   0.71634   0.73700   0.75112   0.79649
 Alpha virt. eigenvalues --    0.80184   0.81740   0.85032   0.87964   0.94537
 Alpha virt. eigenvalues --    0.97479   1.00946   1.06825   1.09378   1.10377
 Alpha virt. eigenvalues --    1.13731   1.14958   1.16149   1.20035   1.31468
 Alpha virt. eigenvalues --    1.38630   1.40726   1.44109   1.45528   1.49605
 Alpha virt. eigenvalues --    1.50565   1.51905   1.53043   1.58669   1.60040
 Alpha virt. eigenvalues --    1.63278   1.66484   1.68590   1.69525   1.70431
 Alpha virt. eigenvalues --    1.72586   1.78064   1.80195   1.80438   1.84322
 Alpha virt. eigenvalues --    1.84957   1.88751   1.97264   1.98285   2.06969
 Alpha virt. eigenvalues --    2.09158   2.12747   2.13210   2.19013   2.19970
 Alpha virt. eigenvalues --    2.25113   2.26483   2.31290   2.36093   2.38787
 Alpha virt. eigenvalues --    2.46575   2.51339   2.53354   2.55013   2.57600
 Alpha virt. eigenvalues --    2.60830   2.63597   2.64852   2.66440   2.68172
 Alpha virt. eigenvalues --    2.72194   2.72520   2.80403   2.83775   2.84732
 Alpha virt. eigenvalues --    2.88791   2.93112   2.95522   3.00050   3.13328
 Alpha virt. eigenvalues --    3.17341   3.17955   3.20674   3.32916   3.42831
 Alpha virt. eigenvalues --    3.57056   3.76566   3.79895   3.84850   3.86500
 Alpha virt. eigenvalues --    3.92446   4.03041   4.17914   4.44693   5.08081
 Alpha virt. eigenvalues --    5.18753   5.56530  23.84376  23.95580  24.05745
 Alpha virt. eigenvalues --   24.33573  49.96694
  Beta  occ. eigenvalues --  -19.64676 -10.55604 -10.55431 -10.54217 -10.53534
  Beta  occ. eigenvalues --   -1.06338  -0.91440  -0.82995  -0.73580  -0.62638
  Beta  occ. eigenvalues --   -0.56320  -0.52991  -0.51115  -0.50108  -0.46543
  Beta  occ. eigenvalues --   -0.42688  -0.42119  -0.40841  -0.38093  -0.32910
  Beta virt. eigenvalues --   -0.10494  -0.00387   0.01244   0.01343   0.01942
  Beta virt. eigenvalues --    0.03595   0.03877   0.04163   0.04685   0.06138
  Beta virt. eigenvalues --    0.07716   0.09141   0.09916   0.10815   0.12150
  Beta virt. eigenvalues --    0.12714   0.13118   0.13543   0.13899   0.14694
  Beta virt. eigenvalues --    0.14795   0.15016   0.15724   0.16553   0.17358
  Beta virt. eigenvalues --    0.18705   0.20139   0.20892   0.22158   0.23979
  Beta virt. eigenvalues --    0.25039   0.25199   0.26094   0.27502   0.29308
  Beta virt. eigenvalues --    0.30004   0.31178   0.31974   0.33823   0.38185
  Beta virt. eigenvalues --    0.38953   0.40858   0.43153   0.46711   0.48751
  Beta virt. eigenvalues --    0.48958   0.51466   0.55836   0.57060   0.59374
  Beta virt. eigenvalues --    0.61280   0.62657   0.64055   0.66070   0.68148
  Beta virt. eigenvalues --    0.69418   0.70516   0.71633   0.73849   0.75299
  Beta virt. eigenvalues --    0.79836   0.80201   0.81943   0.85047   0.88030
  Beta virt. eigenvalues --    0.94474   0.97707   1.01233   1.07443   1.10343
  Beta virt. eigenvalues --    1.10848   1.15244   1.15761   1.16642   1.22189
  Beta virt. eigenvalues --    1.31928   1.38981   1.40987   1.44454   1.45782
  Beta virt. eigenvalues --    1.50478   1.50772   1.53066   1.53497   1.58924
  Beta virt. eigenvalues --    1.60226   1.63372   1.66715   1.68715   1.69553
  Beta virt. eigenvalues --    1.70681   1.72601   1.78084   1.80321   1.80508
  Beta virt. eigenvalues --    1.84842   1.85492   1.88635   1.97376   1.98447
  Beta virt. eigenvalues --    2.07163   2.10220   2.12713   2.13325   2.19259
  Beta virt. eigenvalues --    2.20216   2.25233   2.26464   2.31576   2.36216
  Beta virt. eigenvalues --    2.38934   2.46695   2.51462   2.53551   2.55069
  Beta virt. eigenvalues --    2.57518   2.60935   2.63789   2.64860   2.66640
  Beta virt. eigenvalues --    2.68226   2.70770   2.72339   2.80517   2.84057
  Beta virt. eigenvalues --    2.85254   2.91576   2.92666   2.97397   3.00384
  Beta virt. eigenvalues --    3.14649   3.18778   3.19898   3.22514   3.34610
  Beta virt. eigenvalues --    3.43917   3.57154   3.77514   3.80062   3.84928
  Beta virt. eigenvalues --    3.86549   3.94981   4.03285   4.18510   4.45135
  Beta virt. eigenvalues --    5.10119   5.26281   5.59071  23.84397  23.95753
  Beta virt. eigenvalues --   24.05765  24.33624  49.96150
          Condensed to atoms (all electrons):
               1          2          3          4          5          6
     1  C    5.686793   0.342176   0.406578  -0.089232  -0.062899   0.324444
     2  H    0.342176   0.541756  -0.037863  -0.007164   0.007668   0.005628
     3  H    0.406578  -0.037863   0.511107   0.011859  -0.013237  -0.048029
     4  C   -0.089232  -0.007164   0.011859   6.558713   0.358575  -1.213709
     5  H   -0.062899   0.007668  -0.013237   0.358575   0.496065   0.020658
     6  C    0.324444   0.005628  -0.048029  -1.213709   0.020658   7.078654
     7  H    0.027536  -0.002683   0.004198   0.013353  -0.013370   0.187068
     8  H    0.012624   0.003292  -0.004404  -0.163847  -0.000421   0.596036
     9  C   -0.145899   0.004203   0.013601   0.297099   0.000721  -0.262929
    10  H    0.005101  -0.004668   0.000229   0.020772  -0.001674  -0.090454
    11  H   -0.016777   0.001898  -0.000847   0.015185   0.003143  -0.053626
    12  H    0.030333  -0.001184   0.000182  -0.028390  -0.002553   0.017843
    13  O   -0.010551   0.000316   0.001233   0.019749  -0.010833   0.017833
    14  H   -0.022506   0.000640  -0.001278   0.017921   0.004463   0.039024
               7          8          9         10         11         12
     1  C    0.027536   0.012624  -0.145899   0.005101  -0.016777   0.030333
     2  H   -0.002683   0.003292   0.004203  -0.004668   0.001898  -0.001184
     3  H    0.004198  -0.004404   0.013601   0.000229  -0.000847   0.000182
     4  C    0.013353  -0.163847   0.297099   0.020772   0.015185  -0.028390
     5  H   -0.013370  -0.000421   0.000721  -0.001674   0.003143  -0.002553
     6  C    0.187068   0.596036  -0.262929  -0.090454  -0.053626   0.017843
     7  H    0.634920  -0.094079  -0.006725   0.016815  -0.016594  -0.018565
     8  H   -0.094079   0.559814  -0.113907  -0.015076  -0.003458   0.012786
     9  C   -0.006725  -0.113907   5.542946   0.450248   0.434336   0.340727
    10  H    0.016815  -0.015076   0.450248   0.547434  -0.025121  -0.064921
    11  H   -0.016594  -0.003458   0.434336  -0.025121   0.518728  -0.027029
    12  H   -0.018565   0.012786   0.340727  -0.064921  -0.027029   0.577408
    13  O    0.031364   0.005750  -0.032674  -0.001147   0.000489  -0.004816
    14  H   -0.050335   0.003788   0.002947  -0.000663   0.002782  -0.001815
              13         14
     1  C   -0.010551  -0.022506
     2  H    0.000316   0.000640
     3  H    0.001233  -0.001278
     4  C    0.019749   0.017921
     5  H   -0.010833   0.004463
     6  C    0.017833   0.039024
     7  H    0.031364  -0.050335
     8  H    0.005750   0.003788
     9  C   -0.032674   0.002947
    10  H   -0.001147  -0.000663
    11  H    0.000489   0.002782
    12  H   -0.004816  -0.001815
    13  O    8.019851   0.269251
    14  H    0.269251   0.492787
          Atomic-Atomic Spin Densities.
               1          2          3          4          5          6
     1  C    0.123753  -0.002991  -0.000114  -0.025347  -0.006903  -0.066910
     2  H   -0.002991  -0.002375  -0.000045   0.001608   0.000335   0.003600
     3  H   -0.000114  -0.000045  -0.003391  -0.001330  -0.000076   0.000325
     4  C   -0.025347   0.001608  -0.001330  -0.107891   0.007341   0.144707
     5  H   -0.006903   0.000335  -0.000076   0.007341   0.001838   0.003268
     6  C   -0.066910   0.003600   0.000325   0.144707   0.003268   0.131612
     7  H    0.057129  -0.003050   0.001817  -0.082148  -0.007588   0.088582
     8  H   -0.016140   0.000467   0.000175   0.032655   0.000530  -0.032306
     9  C    0.013253  -0.001123   0.000237  -0.037151  -0.000957   0.029640
    10  H    0.012639  -0.000735   0.000033  -0.013257  -0.000366  -0.005606
    11  H   -0.001310  -0.000007   0.000107   0.005835   0.000061  -0.005696
    12  H   -0.008871   0.000943  -0.000308   0.007871   0.000441   0.002670
    13  O   -0.017903   0.000740  -0.000497   0.031765   0.003255  -0.049520
    14  H    0.002362  -0.000113   0.000034  -0.003182  -0.000700  -0.003017
               7          8          9         10         11         12
     1  C    0.057129  -0.016140   0.013253   0.012639  -0.001310  -0.008871
     2  H   -0.003050   0.000467  -0.001123  -0.000735  -0.000007   0.000943
     3  H    0.001817   0.000175   0.000237   0.000033   0.000107  -0.000308
     4  C   -0.082148   0.032655  -0.037151  -0.013257   0.005835   0.007871
     5  H   -0.007588   0.000530  -0.000957  -0.000366   0.000061   0.000441
     6  C    0.088582  -0.032306   0.029640  -0.005606  -0.005696   0.002670
     7  H   -0.008685  -0.021372  -0.002738   0.005201  -0.003945  -0.001583
     8  H   -0.021372   0.025080   0.005300  -0.007191   0.000540   0.003255
     9  C   -0.002738   0.005300  -0.028078   0.005540   0.003655  -0.003097
    10  H    0.005201  -0.007191   0.005540   0.023514  -0.001024  -0.004032
    11  H   -0.003945   0.000540   0.003655  -0.001024   0.000161   0.000234
    12  H   -0.001583   0.003255  -0.003097  -0.004032   0.000234   0.003719
    13  O   -0.070370   0.012044   0.006792  -0.001515   0.001138   0.002326
    14  H    0.009840  -0.001568   0.001079   0.000519  -0.000220  -0.000933
              13         14
     1  C   -0.017903   0.002362
     2  H    0.000740  -0.000113
     3  H   -0.000497   0.000034
     4  C    0.031765  -0.003182
     5  H    0.003255  -0.000700
     6  C   -0.049520  -0.003017
     7  H   -0.070370   0.009840
     8  H    0.012044  -0.001568
     9  C    0.006792   0.001079
    10  H   -0.001515   0.000519
    11  H    0.001138  -0.000220
    12  H    0.002326  -0.000933
    13  O    0.857119   0.010974
    14  H    0.010974  -0.032384
 Mulliken charges and spin densities:
               1          2
     1  C   -0.487720   0.062646
     2  H    0.145985  -0.002746
     3  H    0.156670  -0.003033
     4  C    0.189116  -0.038524
     5  H    0.213693   0.000479
     6  C   -0.618441   0.241350
     7  H    0.287098  -0.038910
     8  H    0.201101   0.001467
     9  C   -0.524694  -0.007648
    10  H    0.163124   0.013719
    11  H    0.166890  -0.000470
    12  H    0.169996   0.002634
    13  O   -0.305815   0.786347
    14  H    0.242996  -0.017310
 Sum of Mulliken charges =  -0.00000   1.00000
 Mulliken charges and spin densities with hydrogens summed into heavy atoms:
               1          2
     1  C   -0.185065   0.056866
     4  C    0.402809  -0.038045
     6  C   -0.130242   0.203906
     9  C   -0.024684   0.008235
    13  O   -0.062818   0.769038
 APT charges:
               1
     1  C   -0.708527
     2  H    0.296327
     3  H    0.588008
     4  C   -0.376063
     5  H    0.455640
     6  C   -0.954541
     7  H    0.334196
     8  H    0.453131
     9  C   -1.182657
    10  H    0.417175
    11  H    0.465732
    12  H    0.310846
    13  O   -0.379037
    14  H    0.279770
 Sum of APT charges =  -0.00000
 APT charges with hydrogens summed into heavy atoms:
               1
     1  C    0.175808
     4  C    0.079577
     6  C   -0.167214
     9  C    0.011095
    13  O   -0.099267
 Electronic spatial extent (au):  <R**2>=            581.5809
 Charge=              0.0000 electrons
 Dipole moment (field-independent basis, Debye):
    X=             -1.9012    Y=              0.0520    Z=             -0.3162  Tot=              1.9280
 Quadrupole moment (field-independent basis, Debye-Ang):
   XX=            -39.8608   YY=            -31.0247   ZZ=            -31.5397
   XY=              1.4376   XZ=              0.4111   YZ=              1.1211
 Traceless Quadrupole moment (field-independent basis, Debye-Ang):
   XX=             -5.7191   YY=              3.1171   ZZ=              2.6020
   XY=              1.4376   XZ=              0.4111   YZ=              1.1211
 Octapole moment (field-independent basis, Debye-Ang**2):
  XXX=             -8.7747  YYY=             -4.6501  ZZZ=             -0.5647  XYY=              2.1151
  XXY=              0.1273  XXZ=             -4.4112  XZZ=              4.3555  YZZ=             -2.0401
  YYZ=             -1.0695  XYZ=              3.5796
 Hexadecapole moment (field-independent basis, Debye-Ang**3):
 XXXX=           -451.5457 YYYY=           -256.3998 ZZZZ=           -100.3251 XXXY=              8.9522
 XXXZ=              5.9209 YYYX=             -2.5199 YYYZ=              4.1048 ZZZX=             -2.8427
 ZZZY=              1.8483 XXYY=           -102.6117 XXZZ=            -84.5699 YYZZ=            -58.9327
 XXYZ=              7.4076 YYXZ=             -5.8240 ZZXY=             -5.3149
 N-N= 1.711193882457D+02 E-N=-8.850504559876D+02  KE= 2.319914189157D+02
  Exact polarizability:   0.000   0.000   0.000   0.000   0.000   0.000
 Approx polarizability:  85.505  -3.778  60.593   6.845   3.412  65.344
                          Isotropic Fermi Contact Couplings
        Atom                 a.u.       MegaHertz       Gauss      10(-4) cm-1
     1  C(13)              0.00878       9.86682       3.52073       3.29122
     2  H(1)              -0.00096      -4.28953      -1.53061      -1.43083
     3  H(1)              -0.00085      -3.80486      -1.35767      -1.26916
     4  C(13)             -0.01179     -13.25015      -4.72798      -4.41977
     5  H(1)               0.00040       1.77093       0.63191       0.59072
     6  C(13)              0.09009     101.27574      36.13770      33.78195
     7  H(1)              -0.00531     -23.73464      -8.46911      -7.91702
     8  H(1)               0.00017       0.73840       0.26348       0.24630
     9  C(13)             -0.00620      -6.97495      -2.48884      -2.32659
    10  H(1)               0.00582      26.00027       9.27754       8.67276
    11  H(1)               0.00065       2.91129       1.03882       0.97110
    12  H(1)               0.00099       4.41461       1.57524       1.47256
    13  O(17)              0.12465     -75.56385     -26.96306     -25.20539
    14  H(1)              -0.01340     -59.89256     -21.37116     -19.97801
 --------------------------------------------------------
       Center         ----  Spin Dipole Couplings  ----
                      3XX-RR        3YY-RR        3ZZ-RR
 --------------------------------------------------------
     1   Atom       -0.002339     -0.010669      0.013008
     2   Atom        0.000235     -0.000835      0.000600
     3   Atom        0.002902      0.000962     -0.003864
     4   Atom        0.006585      0.000813     -0.007398
     5   Atom        0.004022     -0.000688     -0.003334
     6   Atom        0.208671     -0.078642     -0.130028
     7   Atom        0.076763     -0.028950     -0.047814
     8   Atom       -0.005388     -0.014797      0.020185
     9   Atom        0.000773      0.005085     -0.005858
    10   Atom        0.000968      0.001701     -0.002669
    11   Atom       -0.003211      0.007599     -0.004387
    12   Atom       -0.000760     -0.000134      0.000894
    13   Atom        1.128276     -0.438478     -0.689798
    14   Atom        0.034467     -0.028132     -0.006334
 --------------------------------------------------------
                        XY            XZ            YZ
 --------------------------------------------------------
     1   Atom       -0.022028     -0.033723      0.032949
     2   Atom       -0.001821      0.001437     -0.002846
     3   Atom        0.004644     -0.000984      0.001561
     4   Atom        0.019211      0.018160     -0.010203
     5   Atom        0.004835     -0.002935     -0.000850
     6   Atom       -0.178478     -0.110039      0.053354
     7   Atom       -0.093124     -0.068085      0.044980
     8   Atom       -0.006582     -0.000362      0.012788
     9   Atom       -0.010641      0.003153     -0.005144
    10   Atom       -0.004267      0.000312     -0.001513
    11   Atom       -0.001332     -0.000953     -0.002022
    12   Atom       -0.004471      0.002764     -0.004953
    13   Atom       -1.737231     -1.529384      0.980255
    14   Atom        0.054244      0.072645      0.091530
 --------------------------------------------------------


 ---------------------------------------------------------------------------------
              Anisotropic Spin Dipole Couplings in Principal Axis System
 ---------------------------------------------------------------------------------

       Atom             a.u.   MegaHertz   Gauss  10(-4) cm-1        Axes

              Baa    -0.0341    -4.571    -1.631    -1.525 -0.1571  0.7527 -0.6394
     1 C(13)  Bbb    -0.0275    -3.689    -1.316    -1.230  0.8313  0.4503  0.3259
              Bcc     0.0616     8.260     2.947     2.755 -0.5332  0.4803  0.6964
 
              Baa    -0.0032    -1.692    -0.604    -0.565  0.2106  0.8173  0.5364
     2 H(1)   Bbb    -0.0010    -0.513    -0.183    -0.171  0.8376  0.1320 -0.5301
              Bcc     0.0041     2.206     0.787     0.736  0.5040 -0.5609  0.6567
 
              Baa    -0.0052    -2.799    -0.999    -0.934  0.3677 -0.4759  0.7990
     3 H(1)   Bbb    -0.0014    -0.766    -0.273    -0.255 -0.5167  0.6098  0.6010
              Bcc     0.0067     3.565     1.272     1.189  0.7732  0.6338  0.0217
 
              Baa    -0.0319    -4.287    -1.530    -1.430 -0.5629  0.5281  0.6358
     4 C(13)  Bbb     0.0067     0.894     0.319     0.298  0.1744 -0.6760  0.7159
              Bcc     0.0253     3.393     1.211     1.132  0.8079  0.5139  0.2884
 
              Baa    -0.0047    -2.531    -0.903    -0.844  0.4888 -0.4229  0.7631
     5 H(1)   Bbb    -0.0031    -1.644    -0.586    -0.548 -0.2707  0.7579  0.5935
              Bcc     0.0078     4.174     1.489     1.392  0.8294  0.4966 -0.2560
 
              Baa    -0.1643   -22.049    -7.868    -7.355  0.3228  0.8837 -0.3390
     6 C(13)  Bbb    -0.1625   -21.812    -7.783    -7.276  0.3700  0.2118  0.9046
              Bcc     0.3269    43.861    15.651    14.630  0.8711 -0.4174 -0.2586
 
              Baa    -0.0860   -45.875   -16.369   -15.302  0.2562  0.8209 -0.5104
     7 H(1)   Bbb    -0.0766   -40.855   -14.578   -13.628  0.5390  0.3170  0.7804
              Bcc     0.1626    86.730    30.947    28.930  0.8024 -0.4750 -0.3613
 
              Baa    -0.0214   -11.394    -4.066    -3.801  0.3615  0.8920 -0.2714
     8 H(1)   Bbb    -0.0032    -1.708    -0.609    -0.570  0.9288 -0.3190  0.1888
              Bcc     0.0246    13.102     4.675     4.370 -0.0818  0.3203  0.9438
 
              Baa    -0.0085    -1.146    -0.409    -0.382  0.5099  0.6224  0.5938
     9 C(13)  Bbb    -0.0069    -0.929    -0.331    -0.310 -0.6143 -0.2197  0.7578
              Bcc     0.0155     2.075     0.740     0.692 -0.6021  0.7513 -0.2703
 
              Baa    -0.0037    -1.973    -0.704    -0.658  0.4672  0.5609  0.6835
    10 H(1)   Bbb    -0.0021    -1.136    -0.405    -0.379 -0.5910 -0.3768  0.7132
              Bcc     0.0058     3.109     1.109     1.037 -0.6575  0.7372 -0.1555
 
              Baa    -0.0054    -2.865    -1.022    -0.956  0.4897  0.1832  0.8524
    11 H(1)   Bbb    -0.0027    -1.431    -0.511    -0.477  0.8657  0.0138 -0.5003
              Bcc     0.0081     4.296     1.533     1.433 -0.1034  0.9830 -0.1519
 
              Baa    -0.0055    -2.935    -1.047    -0.979  0.5081  0.7733  0.3792
    12 H(1)   Bbb    -0.0027    -1.463    -0.522    -0.488  0.7046 -0.1200 -0.6994
              Bcc     0.0082     4.398     1.569     1.467 -0.4953  0.6226 -0.6059
 
              Baa    -1.5649   113.238    40.406    37.772  0.6516  0.5528  0.5195
    13 O(17)  Bbb    -1.5524   112.331    40.083    37.470 -0.0161 -0.6746  0.7380
              Bcc     3.1173  -225.569   -80.489   -75.242  0.7584 -0.4892 -0.4306
 
              Baa    -0.1100   -58.689   -20.942   -19.577  0.0762  0.7203 -0.6894
    14 H(1)   Bbb    -0.0374   -19.941    -7.115    -6.652  0.7766 -0.4766 -0.4121
              Bcc     0.1474    78.630    28.057    26.228  0.6254  0.5040  0.5957
 

 ---------------------------------------------------------------------------------

 SCFChk:  SCF convergence  3.45D-09 required  1.00D-08
 Entering OneElI...
 Calculate overlap and kinetic energy integrals
    NBasis = 178  MinDer = 2  MaxDer = 2
 Requested accuracy = 0.1000D-12
 PrmmSu-InSpLW:  IPartL=    0 NPrtUS=   22 NPrtUL=    1 DoSpLW=F IThBeg=    0 IThEnd=   21 NThAct=   22.
 PrsmSu:  NPrtUS=  22 ThrOK=T IAlg=1 NPAlg=1 LenDen=           0 ISkipM=0 DoSpLW=F IThBeg=    0 IThEnd=   21.
 Prism:   IPart=     0 DynPar=F LinDyn=F Incr=           1.
 PRISM was handed   207352692 working-precision words and  2850 shell-pairs
 PRISM was handed   207352692 working-precision words and  2850 shell-pairs
 PRISM was handed   207352692 working-precision words and  2850 shell-pairs
 PRISM was handed   207352692 working-precision words and  2850 shell-pairs
 PRISM was handed   207352692 working-precision words and  2850 shell-pairs
 PRISM was handed   207352692 working-precision words and  2850 shell-pairs
 PRISM was handed   207352692 working-precision words and  2850 shell-pairs
 PRISM was handed   207352692 working-precision words and  2850 shell-pairs
 PRISM was handed   207352692 working-precision words and  2850 shell-pairs
 PRISM was handed   207352692 working-precision words and  2850 shell-pairs
 PRISM was handed   207352692 working-precision words and  2850 shell-pairs
 PRISM was handed   207352692 working-precision words and  2850 shell-pairs
 PRISM was handed   207352692 working-precision words and  2850 shell-pairs
 PRISM was handed   207352692 working-precision words and  2850 shell-pairs
 PRISM was handed   207352692 working-precision words and  2850 shell-pairs
 PRISM was handed   207352692 working-precision words and  2850 shell-pairs
 PRISM was handed   207352692 working-precision words and  2850 shell-pairs
 PRISM was handed   207352692 working-precision words and  2850 shell-pairs
 PRISM was handed   207352692 working-precision words and  2850 shell-pairs
 PRISM was handed   207352692 working-precision words and  2850 shell-pairs
 PRISM was handed   207352692 working-precision words and  2850 shell-pairs
 PRISM was handed   207352692 working-precision words and  2850 shell-pairs
 IPart= 17 NShTot=         121 NBatch=          23 AvBLen=         5.3
 IPart= 20 NShTot=         117 NBatch=          21 AvBLen=         5.6
 IPart=  3 NShTot=         142 NBatch=          36 AvBLen=         3.9
 IPart=  9 NShTot=         129 NBatch=          26 AvBLen=         5.0
 IPart=  0 NShTot=         159 NBatch=          44 AvBLen=         3.6
 IPart=  6 NShTot=         132 NBatch=          28 AvBLen=         4.7
 IPart= 12 NShTot=         123 NBatch=          24 AvBLen=         5.1
 IPart= 14 NShTot=         123 NBatch=          24 AvBLen=         5.1
 IPart= 21 NShTot=         116 NBatch=          20 AvBLen=         5.8
 IPart=  2 NShTot=         146 NBatch=          37 AvBLen=         3.9
 IPart= 19 NShTot=         119 NBatch=          22 AvBLen=         5.4
 IPart= 11 NShTot=         123 NBatch=          24 AvBLen=         5.1
 IPart=  7 NShTot=         132 NBatch=          28 AvBLen=         4.7
 IPart= 15 NShTot=         121 NBatch=          23 AvBLen=         5.3
 IPart= 10 NShTot=         127 NBatch=          26 AvBLen=         4.9
 IPart= 13 NShTot=         123 NBatch=          24 AvBLen=         5.1
 IPart=  8 NShTot=         131 NBatch=          27 AvBLen=         4.9
 IPart= 16 NShTot=         121 NBatch=          23 AvBLen=         5.3
 IPart=  4 NShTot=         140 NBatch=          35 AvBLen=         4.0
 IPart=  1 NShTot=         149 NBatch=          40 AvBLen=         3.7
 IPart= 18 NShTot=         120 NBatch=          22 AvBLen=         5.5
 IPart=  5 NShTot=         136 NBatch=          31 AvBLen=         4.4
 PrSmSu:  NxtVal=             23.
 Entering OneElI...
 Calculate potential energy integrals
    NBasis = 178  MinDer = 2  MaxDer = 2
 Requested accuracy = 0.1000D-12
 PrmmSu-InSpLW:  IPartL=    0 NPrtUS=   22 NPrtUL=    1 DoSpLW=F IThBeg=    0 IThEnd=   21 NThAct=   22.
 PrsmSu:  NPrtUS=  22 ThrOK=T IAlg=1 NPAlg=1 LenDen=           0 ISkipM=0 DoSpLW=F IThBeg=    0 IThEnd=   21.
 Prism:   IPart=     0 DynPar=F LinDyn=F Incr=          17.
 PRISM was handed   207361033 working-precision words and  2768 shell-pairs
 PRISM was handed   207361033 working-precision words and  2768 shell-pairs
 PRISM was handed   207361033 working-precision words and  2768 shell-pairs
 PRISM was handed   207361033 working-precision words and  2768 shell-pairs
 PRISM was handed   207361033 working-precision words and  2768 shell-pairs
 PRISM was handed   207361033 working-precision words and  2768 shell-pairs
 PRISM was handed   207361033 working-precision words and  2768 shell-pairs
 PRISM was handed   207361033 working-precision words and  2768 shell-pairs
 PRISM was handed   207361033 working-precision words and  2768 shell-pairs
 PRISM was handed   207361033 working-precision words and  2768 shell-pairs
 PRISM was handed   207361033 working-precision words and  2768 shell-pairs
 PRISM was handed   207361033 working-precision words and  2768 shell-pairs
 PRISM was handed   207361033 working-precision words and  2768 shell-pairs
 PRISM was handed   207361033 working-precision words and  2768 shell-pairs
 PRISM was handed   207361033 working-precision words and  2768 shell-pairs
 PRISM was handed   207361033 working-precision words and  2768 shell-pairs
 PRISM was handed   207361033 working-precision words and  2768 shell-pairs
 PRISM was handed   207361033 working-precision words and  2768 shell-pairs
 PRISM was handed   207361033 working-precision words and  2768 shell-pairs
 PRISM was handed   207361033 working-precision words and  2768 shell-pairs
 PRISM was handed   207361033 working-precision words and  2768 shell-pairs
 PRISM was handed   207361033 working-precision words and  2768 shell-pairs
 IPart= 17 NShTot=        1610 NBatch=         115 AvBLen=        14.0
 IPart= 15 NShTot=        1624 NBatch=         116 AvBLen=        14.0
 IPart= 10 NShTot=        1736 NBatch=         124 AvBLen=        14.0
 IPart=  9 NShTot=        1764 NBatch=         126 AvBLen=        14.0
 IPart= 12 NShTot=        1680 NBatch=         120 AvBLen=        14.0
 IPart= 14 NShTot=        1652 NBatch=         118 AvBLen=        14.0
 IPart= 20 NShTot=        1582 NBatch=         113 AvBLen=        14.0
 IPart=  6 NShTot=        1834 NBatch=         131 AvBLen=        14.0
 IPart= 13 NShTot=        1666 NBatch=         119 AvBLen=        14.0
 IPart=  2 NShTot=        2002 NBatch=         143 AvBLen=        14.0
 IPart= 11 NShTot=        1708 NBatch=         122 AvBLen=        14.0
 IPart=  3 NShTot=        1960 NBatch=         140 AvBLen=        14.0
 IPart=  0 NShTot=        2114 NBatch=         151 AvBLen=        14.0
 IPart=  8 NShTot=        1820 NBatch=         130 AvBLen=        14.0
 IPart=  4 NShTot=        1918 NBatch=         137 AvBLen=        14.0
 IPart=  1 NShTot=        2058 NBatch=         147 AvBLen=        14.0
 IPart=  7 NShTot=        1820 NBatch=         130 AvBLen=        14.0
 IPart= 19 NShTot=        1596 NBatch=         114 AvBLen=        14.0
 IPart= 18 NShTot=        1596 NBatch=         114 AvBLen=        14.0
 IPart= 21 NShTot=        1554 NBatch=         111 AvBLen=        14.0
 IPart=  5 NShTot=        1834 NBatch=         131 AvBLen=        14.0
 IPart= 16 NShTot=        1624 NBatch=         116 AvBLen=        14.0
 PrSmSu:  NxtVal=            375.
 Polarizability after L701:
                1             2             3 
      1  0.000000D+00
      2  0.000000D+00  0.000000D+00
      3  0.000000D+00  0.000000D+00  0.000000D+00
 Dipole Derivatives after L701:
                 1             2             3             4             5 
      1  -0.493093D+00 -0.284246D+00  0.161635D+00  0.238247D+00 -0.676010D+00
      2  -0.218799D+00 -0.834287D+00  0.471756D+00  0.348806D-01  0.155999D+00
      3  -0.300153D+00  0.313797D+00 -0.798200D+00  0.105635D+00 -0.430036D+00
                 6             7             8             9            10 
      1   0.621191D+00  0.880439D+00  0.978667D+00  0.799529D-01 -0.369237D+00
      2  -0.227546D-01  0.487058D+00  0.745434D+00  0.132593D-01 -0.100995D+00
      3   0.494736D+00  0.159666D+00  0.162453D+00  0.138149D+00 -0.227071D+00
                11            12            13            14            15 
      1  -0.634534D-01 -0.799987D+00  0.171040D+00  0.295747D+00 -0.202124D+00
      2  -0.697382D+00 -0.750541D-01 -0.453271D-01  0.687993D+00 -0.445437D+00
      3   0.275165D+00 -0.615706D-01  0.846265D-01 -0.422969D+00  0.507888D+00
                16            17            18            19            20 
      1  -0.108254D+01 -0.173104D+00  0.206021D+00  0.372897D+00  0.620366D-04
      2  -0.320295D+00 -0.265780D+00 -0.282151D+00  0.780261D-01  0.278555D+00
      3   0.334725D-01 -0.320273D-01 -0.151530D+01  0.835380D-01  0.136440D-01
                21            22            23            24            25 
      1  -0.133931D+00  0.212211D+00  0.240777D-01  0.758789D-01 -0.104016D+01
      2   0.461990D-01  0.307433D-01  0.306185D+00  0.287291D+00  0.117860D+00
      3   0.351137D+00  0.582299D-01  0.171208D+00  0.840997D+00  0.417878D-01
                26            27            28            29            30 
      1  -0.665265D-01 -0.365090D-02  0.551039D+00 -0.214676D+00 -0.638852D-01
      2  -0.166122D+01  0.225269D+00 -0.793207D+00  0.524310D+00  0.936310D-01
      3  -0.187215D+00 -0.846591D+00 -0.460409D-02  0.166348D-01  0.176175D+00
                31            32            33            34            35 
      1   0.406885D+00  0.229110D+00  0.766465D-01  0.196422D+00 -0.450075D-01
      2   0.766239D+00  0.851406D+00  0.184396D+00 -0.287113D-01  0.384557D-01
      3  -0.890846D-02 -0.349143D-01  0.138905D+00 -0.275582D-01  0.166014D+00
                36            37            38            39            40 
      1  -0.173993D-01  0.197339D+00  0.371205D+00  0.387733D+00 -0.241492D+00
      2  -0.487590D+00 -0.412485D+00 -0.699806D+00 -0.363223D+00  0.405011D+00
      3   0.697659D+00 -0.288279D+00 -0.242116D+00 -0.634644D+00  0.289618D+00
                41            42 
      1  -0.375844D+00 -0.388082D+00
      2   0.570141D+00  0.354408D+00
      3   0.230361D+00  0.510661D+00
 Hessian after L701:
                1             2             3             4             5 
      1  0.106397D+02
      2 -0.249535D+01  0.124129D+02
      3 -0.550940D+01  0.142932D+01  0.109289D+02
      4 -0.348181D+01 -0.400631D+00  0.283747D+00  0.336004D+01
      5 -0.225724D+00 -0.224505D+01 -0.110996D+01  0.391475D+00  0.230924D+01
      6  0.159523D+00 -0.126897D+01 -0.240248D+01 -0.316997D+00  0.118159D+01
      7 -0.242616D+01  0.113738D+01  0.240178D-01  0.700175D-01 -0.508134D-01
      8  0.105990D+01 -0.194679D+01  0.844965D-01 -0.563065D-01 -0.937598D-01
      9  0.729616D-01  0.153040D+00 -0.332004D+01  0.334293D-01  0.757303D-01
     10 -0.498193D+01  0.113199D+01  0.497478D+01  0.138338D-01 -0.336720D-01
     11  0.102534D+01 -0.830864D+01 -0.625100D+00  0.397406D-01  0.886156D-01
     12  0.516647D+01 -0.480766D+00 -0.478014D+01 -0.680641D-01 -0.697072D-01
     13  0.394573D-02 -0.327789D-02 -0.312309D-01 -0.234940D-02 -0.219864D-01
     14 -0.403604D-01  0.128927D+00 -0.122179D+00 -0.265161D-01  0.201178D-01
     15 -0.140364D-01 -0.705895D-01  0.784992D-01  0.241248D-01 -0.424327D-01
     16 -0.970969D-01  0.264787D+00  0.172473D+00 -0.318016D-01 -0.306193D-01
     17  0.373061D+00 -0.456929D-01  0.307973D+00 -0.806861D-02 -0.769578D-02
     18  0.109138D+00  0.199011D+00 -0.273063D+00 -0.345328D-01 -0.383181D-01
     19  0.529815D-01 -0.276193D-01 -0.284244D-01  0.644212D-02 -0.592950D-02
     20 -0.376313D-01 -0.282552D-01 -0.261243D-01 -0.160243D-02  0.507213D-03
     21 -0.570517D-01 -0.208949D-01 -0.460246D-01  0.151498D-02  0.406503D-03
     22 -0.206651D-01  0.425651D-01  0.628758D-01  0.890034D-03 -0.153834D-02
     23  0.457471D-01  0.989915D-02  0.818474D-01  0.270479D-02 -0.615994D-02
     24  0.819562D-01  0.943524D-01  0.931950D-01  0.949846D-02 -0.685144D-02
     25  0.115551D+00  0.243109D+00  0.266591D-01  0.304664D-01  0.205048D-01
     26  0.133825D+00  0.272807D-01  0.204796D-02  0.594676D-01 -0.392151D-01
     27  0.327822D-01  0.530607D-01 -0.114408D+00  0.608321D-01  0.134182D-01
     28 -0.233450D-01 -0.485747D-02 -0.111047D-01 -0.400332D-02  0.678120D-03
     29  0.395290D-01  0.426515D-01 -0.219632D-02  0.177054D-02 -0.711229D-02
     30 -0.326878D-02 -0.184187D-02 -0.323549D-01  0.989278D-03 -0.146377D-02
     31  0.153025D-01  0.966394D-02  0.943953D-02  0.610512D-02 -0.153855D-04
     32  0.592780D-02  0.160620D-02  0.105909D-01  0.906134D-02 -0.368300D-02
     33  0.533916D-02  0.745692D-02  0.159245D-02  0.402932D-02  0.304195D-05
     34 -0.333865D-01  0.710275D-01 -0.263254D-01 -0.261318D-02 -0.518976D-02
     35  0.608193D-01  0.383250D-01 -0.355632D-01 -0.114435D-02 -0.750081D-02
     36 -0.668667D-01 -0.928283D-01 -0.422945D-01 -0.826947D-02  0.452623D-02
     37  0.274973D+00  0.134021D-01  0.402207D-01  0.323510D-01 -0.369494D-01
     38  0.403672D-01 -0.958367D-01  0.116904D-01 -0.373230D-02 -0.122607D-01
     39  0.144606D-01  0.220888D-02 -0.979460D-01  0.125608D-01 -0.115025D-01
     40 -0.380145D-01  0.178181D-01  0.122772D-01  0.243477D-02 -0.219958D-03
     41  0.145549D-01  0.870973D-02 -0.684191D-02 -0.621868D-02  0.395135D-02
     42  0.799156D-02 -0.256184D-02  0.652321D-02 -0.286274D-02  0.455896D-02
                6             7             8             9            10 
      6  0.232086D+01
      7  0.287976D-01  0.220671D+01
      8  0.673155D-01 -0.124732D+01  0.186702D+01
      9  0.567134D-01 -0.103756D+00 -0.249853D+00  0.330865D+01
     10 -0.135892D-01  0.310885D-01  0.753337D-01 -0.179096D-01  0.106271D+02
     11  0.999486D-02  0.249011D-01  0.584339D-01 -0.166280D-01 -0.337634D+01
     12  0.209995D-01  0.285108D-01  0.457577D-01  0.436905D-03 -0.529907D+01
     13  0.195277D-01 -0.177610D-01  0.349275D-02 -0.272506D-01 -0.357798D+01
     14 -0.446969D-01 -0.576533D-02  0.751938D-02 -0.691852D-02 -0.200644D+00
     15  0.481748D-01 -0.224765D-01  0.252140D-02 -0.170998D-01  0.121774D+00
     16 -0.199775D-01  0.645204D-01  0.652233D-01  0.292686D-01 -0.233952D+01
     17 -0.894953D-02  0.755939D-01  0.704695D-01  0.378174D-01  0.250605D+01
     18 -0.290007D-01  0.303609D-01  0.386077D-01  0.110311D-01  0.417249D+00
     19  0.106410D-01  0.625847D-02  0.679322D-02 -0.314503D-03  0.575508D-01
     20 -0.180507D-02 -0.384486D-03 -0.339948D-02 -0.464435D-03 -0.945752D-01
     21 -0.527381D-03 -0.155582D-02 -0.114135D-02 -0.226981D-02 -0.307717D-01
     22  0.667583D-02 -0.121979D-02  0.702190D-03 -0.117529D-02  0.908003D-01
     23  0.387189D-02 -0.124557D-02  0.342481D-02 -0.961865D-03 -0.845616D-01
     24  0.128171D-01  0.460244D-02  0.671323D-02  0.158719D-02 -0.824427D-01
     25  0.875264D-01  0.248163D-01  0.621949D-01  0.853646D-02 -0.153576D+00
     26  0.487084D-01  0.508399D-01  0.319226D-01  0.760319D-02  0.207106D+00
     27 -0.756071D-02  0.103243D-01  0.119146D-01 -0.260759D-01 -0.405932D-01
     28 -0.619913D-02 -0.516682D-02 -0.675154D-02 -0.564604D-03 -0.443023D-01
     29  0.888869D-02  0.367353D-02  0.484588D-02  0.709017D-03 -0.647684D-04
     30  0.153817D-02  0.224443D-03  0.603949D-03 -0.871850D-03 -0.547687D-02
     31  0.974071D-02  0.586416D-02  0.792920D-02  0.966649D-03  0.195087D-01
     32  0.813137D-02  0.668863D-02  0.788315D-02  0.794426D-03  0.131551D+00
     33 -0.139247D-03  0.138617D-02  0.135366D-02 -0.326006D-03 -0.171323D-01
     34  0.503918D-02  0.123579D-02  0.291791D-02 -0.462449D-03  0.895862D-02
     35  0.182747D-02  0.117553D-02 -0.213296D-03 -0.315476D-03 -0.329156D-01
     36 -0.110148D-01 -0.718129D-02 -0.922946D-02 -0.910699D-03  0.298514D-01
     37  0.297808D-01  0.444225D-01  0.280096D-01  0.616716D-02  0.186819D+00
     38 -0.183486D-02  0.904300D-02 -0.381782D-02 -0.279066D-03 -0.155719D+00
     39 -0.468543D-02  0.109900D-01  0.502663D-02 -0.104400D-01  0.513744D-01
     40 -0.489197D-03 -0.462969D-02 -0.211764D-02  0.103061D-03  0.616498D-01
     41 -0.407773D-02 -0.376280D-02 -0.353861D-02 -0.273698D-03 -0.735353D-01
     42 -0.569069D-02 -0.424500D-02 -0.408659D-02 -0.385491D-03 -0.880413D-01
               11            12            13            14            15 
     11  0.117752D+02
     12  0.145700D+01  0.123225D+02
     13 -0.154316D+00  0.763173D-01  0.364273D+01
     14 -0.226366D+01 -0.108594D+01  0.230171D+00  0.206031D+01
     15 -0.111590D+01 -0.263566D+01 -0.288242D-01  0.137004D+01  0.246050D+01
     16  0.249658D+01  0.376322D+00 -0.150690D-01 -0.135221D-01 -0.514516D-02
     17 -0.157845D+01  0.196025D+00 -0.541303D-01 -0.410416D-02 -0.693705D-01
     18  0.283846D+00 -0.449312D+01  0.163258D-01 -0.430168D-01  0.410504D-01
     19 -0.661517D-01 -0.391062D-01 -0.158678D-02  0.141732D-02 -0.480458D-02
     20 -0.104562D-01  0.131927D-01 -0.776270D-02 -0.532008D-03  0.369800D-02
     21 -0.736822D-03  0.430336D-01  0.292296D-02 -0.205054D-03  0.769208D-02
     22 -0.820022D-01 -0.784272D-01 -0.553088D-03 -0.107590D-01 -0.306986D-02
     23  0.979829D-01 -0.586986D-01 -0.143560D-01 -0.182395D-01 -0.988861D-02
     24 -0.511517D-01  0.163163D+00 -0.404536D-02  0.456514D-02 -0.199995D-02
     25  0.250096D+00 -0.100082D+00 -0.215379D-01  0.181346D-01 -0.123147D-01
     26  0.145605D+00 -0.929283D-02  0.111408D-01  0.586466D-01 -0.410552D-01
     27  0.188880D-01 -0.249069D+00 -0.625268D-02 -0.365691D-01 -0.169107D-02
     28 -0.336509D-01  0.668516D-02  0.950047D-05 -0.783182D-02  0.533744D-02
     29  0.669195D-01 -0.289810D-01 -0.172799D-02  0.987606D-02 -0.587705D-02
     30 -0.124083D-01 -0.441081D-01  0.324943D-03 -0.207679D-02 -0.286569D-03
     31  0.139201D+00 -0.256405D-01 -0.157962D-02  0.968619D-02 -0.576712D-02
     32  0.157094D+00 -0.291727D-01  0.185442D-02  0.107679D-01 -0.850630D-02
     33 -0.189733D-01 -0.592995D-01  0.321764D-04 -0.370444D-03 -0.249324D-02
     34 -0.165897D-01  0.821568D-02  0.756511D-03 -0.974845D-04 -0.103358D-03
     35 -0.560796D-02  0.216415D-01 -0.954881D-03 -0.274647D-02  0.262534D-02
     36  0.136689D-01  0.271239D-01  0.139533D-02 -0.540876D-02  0.609183D-02
     37 -0.219300D+00 -0.193864D-01 -0.105144D-01  0.465306D-01 -0.487444D-01
     38 -0.191607D+00  0.275711D-03  0.143429D-01  0.549015D-02 -0.215709D-01
     39  0.232807D-01 -0.279741D+00 -0.708503D-02 -0.183177D-01  0.700250D-02
     40 -0.275030D-01 -0.327503D-01  0.148952D-02 -0.443811D-03 -0.594954D-02
     41 -0.314490D-01  0.286620D-01 -0.248952D-02 -0.123773D-01  0.630460D-02
     42  0.342214D-01 -0.361399D-01 -0.121574D-01 -0.891322D-02  0.102267D-01
               16            17            18            19            20 
     16  0.113827D+02
     17 -0.134165D+01  0.103817D+02
     18 -0.727300D-01  0.646067D+00  0.125764D+02
     19 -0.108546D+01 -0.945021D+00 -0.383623D+00  0.554461D+00
     20 -0.894069D+00 -0.289300D+01  0.154428D+00  0.152887D+01  0.306509D+01
     21 -0.308939D+00  0.127808D+00 -0.322710D+01  0.758756D+00 -0.414467D+00
     22 -0.382152D+01  0.539639D-01  0.251829D+00  0.844208D-01  0.654671D-01
     23  0.615058D-01 -0.369547D+01  0.657139D+00  0.681633D-01  0.113919D+00
     24  0.266267D+00  0.616741D+00 -0.151734D+01  0.115263D+00 -0.831838D-01
     25 -0.463731D+01 -0.358553D+00  0.244424D+00  0.916214D-01  0.151734D-01
     26 -0.311541D+00 -0.184240D+01 -0.228736D+01 -0.974893D-02 -0.512444D-01
     27  0.229262D+00 -0.222179D+01 -0.299588D+01 -0.124959D-01  0.480372D-01
     28  0.935467D-01  0.222297D-01 -0.281359D-01  0.530582D-01 -0.712519D-01
     29  0.773206D-01  0.110111D-01  0.434327D-01 -0.808223D-01  0.361762D-01
     30 -0.469650D-01  0.432098D-01  0.861131D-01  0.141625D-01 -0.103334D-01
     31  0.100540D+00 -0.587814D-02  0.119266D-01  0.112964D-01  0.100308D-01
     32 -0.339301D-01 -0.162771D-02  0.807325D-02  0.280241D-02 -0.327742D-01
     33  0.372339D-01  0.358179D-01  0.799879D-01 -0.292192D-02  0.116202D-01
     34 -0.313661D-01  0.359921D-02 -0.282775D-01  0.116520D-01  0.306600D-01
     35  0.102444D-01 -0.307221D-01  0.640721D-01  0.397058D-01  0.451425D-04
     36 -0.444009D-01 -0.125165D-01  0.490251D-01 -0.432320D-01  0.509670D-01
     37  0.494419D+00 -0.285201D+00 -0.503126D+00  0.805590D-01 -0.578592D+00
     38 -0.239883D+00 -0.380620D+00  0.174548D+00 -0.540398D+00 -0.202130D+00
     39 -0.517085D+00  0.193967D+00 -0.305038D+00 -0.410565D+00  0.330669D+00
     40 -0.765475D-01 -0.360015D-01 -0.308280D-01  0.767465D-01  0.356727D-01
     41 -0.110451D+00  0.166430D-01  0.994676D-01  0.279432D-01  0.604810D-02
     42 -0.955848D-01  0.107205D+00 -0.303561D-02  0.266650D-01 -0.762347D-01
               21            22            23            24            25 
     21  0.361208D+01
     22  0.112661D+00  0.355645D+01
     23 -0.850239D-01 -0.546145D-01  0.346075D+01
     24  0.277182D-01 -0.293866D+00 -0.755229D+00  0.994723D+00
     25 -0.389473D-01  0.127909D+00  0.724689D-02 -0.339064D-02  0.119954D+02
     26  0.749495D-01  0.804721D-02  0.944603D-01  0.108129D+00 -0.536407D-01
     27  0.113430D-01 -0.541758D-02  0.956929D-01  0.637955D-01 -0.126760D+00
     28  0.144218D-01  0.903231D-02  0.130828D-01 -0.652517D-02 -0.170657D+01
     29 -0.144230D-01  0.121712D-01  0.131071D-02  0.169150D-01 -0.106425D+01
     30 -0.257520D-01 -0.156238D-01  0.168135D-01 -0.701046D-02 -0.234120D+00
     31 -0.366411D-03  0.694164D-02 -0.693468D-02 -0.321725D-02 -0.235324D+01
     32  0.155096D-01 -0.619520D-02 -0.114081D-01  0.113498D-01  0.117343D+01
     33  0.142365D-01  0.695070D-02  0.192765D-01 -0.116051D-01  0.211868D+00
     34 -0.436666D-01 -0.277214D-01 -0.483968D-03  0.596898D-02 -0.351766D+01
     35  0.552328D-01 -0.220276D-02 -0.287709D-01 -0.247938D-01 -0.229553D-01
     36 -0.301677D-01  0.112384D-01 -0.146393D-01  0.122264D+00 -0.925218D-01
     37 -0.444381D+00  0.454005D-03 -0.331356D-01 -0.874618D-01  0.168999D-01
     38  0.345620D+00 -0.182735D-01 -0.270093D-01  0.412247D-01 -0.257590D+00
     39 -0.379911D+00 -0.464629D-01  0.349964D-01  0.409863D-01  0.431664D-01
     40  0.354017D-01 -0.522125D-02 -0.311878D-02 -0.260762D-02 -0.128017D-01
     41 -0.826351D-01 -0.733135D-02  0.531114D-02  0.212198D-01 -0.328954D-01
     42 -0.435403D-02 -0.818832D-02  0.148040D-01  0.177056D-01 -0.140451D-01
               26            27            28            29            30 
     26  0.101840D+02
     27  0.116913D+01  0.116839D+02
     28 -0.918315D+00 -0.259424D+00  0.162352D+01
     29 -0.299489D+01  0.160253D+00  0.986150D+00  0.268361D+01
     30  0.128117D+00 -0.346895D+01  0.176767D+00 -0.925172D-01  0.344836D+01
     31  0.109003D+01  0.224066D+00 -0.589085D-01 -0.315631D-01 -0.941897D-02
     32 -0.234854D+01  0.236406D+00 -0.291296D-03  0.624239D-01  0.414714D-02
     33  0.206318D+00 -0.342613D+01  0.901127D-02  0.565859D-02  0.477260D-01
     34 -0.316696D-01 -0.955722D-01  0.447696D-01  0.783624D-01  0.121766D+00
     35 -0.342064D+01  0.447882D+00  0.469178D-01  0.749767D-01 -0.714993D-01
     36  0.638253D+00 -0.128415D+01  0.102570D+00 -0.944487D-01  0.600973D-02
     37 -0.225380D+00 -0.132667D-01  0.223814D-01 -0.237283D-01  0.229422D-03
     38  0.135565D+00 -0.141689D-01 -0.215715D-01  0.589184D-02 -0.114886D-02
     39 -0.621161D-01 -0.175579D+00  0.123511D-02 -0.280071D-03 -0.101222D-01
     40 -0.101606D-01  0.251476D-02 -0.402276D-02  0.318248D-02  0.409682D-03
     41  0.194059D-01  0.178478D-01 -0.453728D-02  0.231245D-02  0.397854D-03
     42  0.165643D-01 -0.957878D-02 -0.407425D-02  0.286611D-02 -0.289766D-03
               31            32            33            34            35 
     31  0.224351D+01
     32 -0.121935D+01  0.207464D+01
     33 -0.192104D+00 -0.233614D+00  0.337969D+01
     34  0.381750D-01 -0.294906D-01 -0.546727D-01  0.351802D+01
     35 -0.955798D-02  0.166285D-01 -0.535902D-01 -0.857612D-01  0.337252D+01
     36 -0.185131D-01 -0.373037D-01  0.473930D-02  0.918568D-01 -0.393008D+00
     37 -0.323748D-01 -0.442119D-01 -0.100255D-01 -0.941181D-02 -0.324105D-02
     38  0.460191D-02  0.510658D-01  0.143649D-01 -0.149606D-01 -0.752063D-02
     39 -0.378668D-02  0.416385D-02 -0.260062D-01  0.166648D-01 -0.144820D-01
     40 -0.114607D-02  0.215465D-02  0.100515D-02 -0.140698D-02 -0.129879D-03
     41  0.215690D-02  0.159187D-01  0.467868D-02 -0.232408D-02  0.123168D-02
     42  0.267415D-02  0.943034D-02 -0.197353D-02 -0.431119D-03 -0.295340D-04
               36            37            38            39            40 
     36  0.114373D+01
     37  0.476375D-01  0.218683D+01
     38 -0.390282D-01  0.208829D-01  0.480463D+01
     39  0.153688D-01 -0.578186D+00 -0.175112D+01  0.491950D+01
     40 -0.356412D-02 -0.328781D+01  0.116289D+01  0.141272D+01  0.328928D+01
     41 -0.900481D-02  0.134091D+01 -0.408184D+01  0.126351D+01 -0.114202D+01
     42 -0.581495D-02  0.158054D+01  0.124143D+01 -0.369339D+01 -0.138824D+01
               41            42 
     41  0.404967D+01
     42 -0.133925D+01  0.372620D+01
 ICntrl=    100127.
 Calling FoFJK, ICntrl=    100127 FMM=F ISym2X=0 I1Cent= 0 IOpClX= 1 NMat=1 NMatS=1 NMatT=0.
 FoFJK:  IHMeth= 1 ICntrl=  100127 DoSepK=F KAlg= 0 I1Cent=           0 FoldK=F
 IRaf=         0 NMat=       1 IRICut=       1 DoRegI=T DoRafI=F ISym2E= 0 IDoP0=0 IntGTp=1.
 FoFCou: FMM=F IPFlag=           0 FMFlag=      100000 FMFlg1=         800
         NFxFlg=           0 DoJE=F BraDBF=F KetDBF=F FulRan=T
         wScrn=  0.000000 ICntrl=    100127 IOpCl=  1 I1Cent=           0 NGrid=           0
         NMat0=    1 NMatS0=      1 NMatT0=    0 NMatD0=    1 NMtDS0=    0 NMtDT0=    0
 Symmetry not used in FoFCou.
 FoFCou:  KetSym=F NOpSet=  1 NOpAb=1 NOp=  1.
 FoFCou:  CnvScl= 1.00D+00 Thresh= 1.00D-12 IAcrcy=      10.
 PrismS was handed  4563153655 working-precision words and  2836 shell-pairs
 FoFCou: LinMIO=F DoNuc=F BraDBF=F KetDBF=F HaveP=T PDBF=F HaveZ=T HaveW=F
         NIJTC =      10 NIJTAt=       0 NIJTCD=       0 NIJTT =      10
         IJTBeg=       1 IJTEnd=      10 KLTBeg=       1 KLTEnd=      10
         IPTBeg=       1 IPTEnd=      10 IPTBCv=       1 IPTECv=      10
         IZTBeg=       1 IZTEnd=      10 IZTBCv=       1 IZTECv=      10
         IWTBeg=      11 IWTEnd=      10 IWTBCv=      11 IWTECv=      10
         INTBeg=       1 INTEnd=       0 IFTBCv=       1 IFTECv=      10
 NCel replicated for PrismC:     1
 CoulSu-InSpLW:  IPartL=    0 NPrtUS=   22 NPrtUL=    1 DoSpLW=F IThBeg=    0 IThEnd=   21 NThAct=   22.
 CoulSu:  IncDef=  1024 NBBP=        4022866 NTPThr=   100 NPartT=   22 Incr=        1024 LDynOK=F GPUOK=T.
 CoulSu:  NPrtUS=  22 ThrOK=T IAlg=1 NPAlg=1 LenDen=           0 LWGrdD=           0 DoCopy=F ISkipM=0
          DoSpLW=F IThBeg=    0 IThEnd=   21.
 Enter PrismC:  IPart=  0 JobTyp=22 DoJE=F Cont=F.
 PrismC:  IPart=     0 DynPar=T LinDyn=F Incr=        1024 UseFst=F UseS4=T ISplat=2.
 PrismC was handed   207357361 working-precision words and  2836 shell-pairs
 Enter PrismC:  IPart= 16 JobTyp=22 DoJE=F Cont=F.
 Enter PrismC:  IPart= 12 JobTyp=22 DoJE=F Cont=F.
 PrismC:  IPart=    16 DynPar=T LinDyn=F Incr=        1024 UseFst=F UseS4=T ISplat=2.
 PrismC was handed   207357361 working-precision words and  2836 shell-pairs
 PrismC:  IPart=    12 DynPar=T LinDyn=F Incr=        1024 UseFst=F UseS4=T ISplat=2.
 Enter PrismC:  IPart= 18 JobTyp=22 DoJE=F Cont=F.
 PrismC was handed   207357361 working-precision words and  2836 shell-pairs
 PrismC:  IPart=    18 DynPar=T LinDyn=F Incr=        1024 UseFst=F UseS4=T ISplat=2.
 PrismC was handed   207357361 working-precision words and  2836 shell-pairs
 Enter PrismC:  IPart= 19 JobTyp=22 DoJE=F Cont=F.
 PrismC:  IPart=    19 DynPar=T LinDyn=F Incr=        1024 UseFst=F UseS4=T ISplat=2.
 PrismC was handed   207357361 working-precision words and  2836 shell-pairs
 Enter PrismC:  IPart= 21 JobTyp=22 DoJE=F Cont=F.
 PrismC:  IPart=    21 DynPar=T LinDyn=F Incr=        1024 UseFst=F UseS4=T ISplat=2.
 PrismC was handed   207357361 working-precision words and  2836 shell-pairs
 Enter PrismC:  IPart= 11 JobTyp=22 DoJE=F Cont=F.
 PrismC:  IPart=    11 DynPar=T LinDyn=F Incr=        1024 UseFst=F UseS4=T ISplat=2.
 PrismC was handed   207357361 working-precision words and  2836 shell-pairs
 Enter PrismC:  IPart= 17 JobTyp=22 DoJE=F Cont=F.
 PrismC:  IPart=    17 DynPar=T LinDyn=F Incr=        1024 UseFst=F UseS4=T ISplat=2.
 PrismC was handed   207357361 working-precision words and  2836 shell-pairs
 Enter PrismC:  IPart=  7 JobTyp=22 DoJE=F Cont=F.
 Enter PrismC:  IPart= 14 JobTyp=22 DoJE=F Cont=F.
 Enter PrismC:  IPart=  5 JobTyp=22 DoJE=F Cont=F.
 PrismC:  IPart=     7 DynPar=T LinDyn=F Incr=        1024 UseFst=F UseS4=T ISplat=2.
 PrismC was handed   207357361 working-precision words and  2836 shell-pairs
 PrismC:  IPart=    14 DynPar=T LinDyn=F Incr=        1024 UseFst=F UseS4=T ISplat=2.
 PrismC was handed   207357361 working-precision words and  2836 shell-pairs
 PrismC:  IPart=     5 DynPar=T LinDyn=F Incr=        1024 UseFst=F UseS4=T ISplat=2.
 PrismC was handed   207357361 working-precision words and  2836 shell-pairs
 Enter PrismC:  IPart=  6 JobTyp=22 DoJE=F Cont=F.
 Enter PrismC:  IPart= 13 JobTyp=22 DoJE=F Cont=F.
 Enter PrismC:  IPart=  3 JobTyp=22 DoJE=F Cont=F.
 PrismC:  IPart=    13 DynPar=T LinDyn=F Incr=        1024 UseFst=F UseS4=T ISplat=2.
 PrismC was handed   207357361 working-precision words and  2836 shell-pairs
 PrismC:  IPart=     6 DynPar=T LinDyn=F Incr=        1024 UseFst=F UseS4=T ISplat=2.
 PrismC was handed   207357361 working-precision words and  2836 shell-pairs
 PrismC:  IPart=     3 DynPar=T LinDyn=F Incr=        1024 UseFst=F UseS4=T ISplat=2.
 PrismC was handed   207357361 working-precision words and  2836 shell-pairs
 Enter PrismC:  IPart=  2 JobTyp=22 DoJE=F Cont=F.
 Enter PrismC:  IPart=  8 JobTyp=22 DoJE=F Cont=F.
 PrismC:  IPart=     8 DynPar=T LinDyn=F Incr=        1024 UseFst=F UseS4=T ISplat=2.
 Enter PrismC:  IPart=  9 JobTyp=22 DoJE=F Cont=F.
 PrismC was handed   207357361 working-precision words and  2836 shell-pairs
 PrismC:  IPart=     2 DynPar=T LinDyn=F Incr=        1024 UseFst=F UseS4=T ISplat=2.
 PrismC was handed   207357361 working-precision words and  2836 shell-pairs
 PrismC:  IPart=     9 DynPar=T LinDyn=F Incr=        1024 UseFst=F UseS4=T ISplat=2.
 PrismC was handed   207357361 working-precision words and  2836 shell-pairs
 Enter PrismC:  IPart=  4 JobTyp=22 DoJE=F Cont=F.
 Enter PrismC:  IPart= 10 JobTyp=22 DoJE=F Cont=F.
 PrismC:  IPart=     4 DynPar=T LinDyn=F Incr=        1024 UseFst=F UseS4=T ISplat=2.
 Enter PrismC:  IPart= 15 JobTyp=22 DoJE=F Cont=F.
 PrismC:  IPart=    10 DynPar=T LinDyn=F Incr=        1024 UseFst=F UseS4=T ISplat=2.
 Enter PrismC:  IPart= 20 JobTyp=22 DoJE=F Cont=F.
 PrismC:  IPart=    15 DynPar=T LinDyn=F Incr=        1024 UseFst=F UseS4=T ISplat=2.
 Enter PrismC:  IPart=  1 JobTyp=22 DoJE=F Cont=F.
 PrismC:  IPart=    20 DynPar=T LinDyn=F Incr=        1024 UseFst=F UseS4=T ISplat=2.
 PrismC was handed   207357361 working-precision words and  2836 shell-pairs
 PrismC was handed   207357361 working-precision words and  2836 shell-pairs
 PrismC:  IPart=     1 DynPar=T LinDyn=F Incr=        1024 UseFst=F UseS4=T ISplat=2.
 PrismC was handed   207357361 working-precision words and  2836 shell-pairs
 PrismC was handed   207357361 working-precision words and  2836 shell-pairs
 PrismC was handed   207357361 working-precision words and  2836 shell-pairs
 IPart=  8 NShTot=      163842 NShNF=      163842 NShFF=           0 MinMC=       7
           NShCPU=      163842 NBCPU=        4598 AvBCPU=        35.6
           NShGPU=           0 NBGPU=           0 AvBGPU=         0.0
 IPart=  4 NShTot=      160054 NShNF=      160054 NShFF=           0 MinMC=       7
           NShCPU=      160054 NBCPU=        4150 AvBCPU=        38.6
           NShGPU=           0 NBGPU=           0 AvBGPU=         0.0
 IPart= 20 NShTot=      166703 NShNF=      166703 NShFF=           0 MinMC=       7
           NShCPU=      166703 NBCPU=        4844 AvBCPU=        34.4
           NShGPU=           0 NBGPU=           0 AvBGPU=         0.0
 IPart= 10 NShTot=      165733 NShNF=      165733 NShFF=           0 MinMC=       7
           NShCPU=      165733 NBCPU=        4821 AvBCPU=        34.4
           NShGPU=           0 NBGPU=           0 AvBGPU=         0.0
 IPart= 11 NShTot=      155857 NShNF=      155857 NShFF=           0 MinMC=       7
           NShCPU=      155857 NBCPU=        4254 AvBCPU=        36.6
           NShGPU=           0 NBGPU=           0 AvBGPU=         0.0
 IPart= 14 NShTot=      161613 NShNF=      161613 NShFF=           0 MinMC=       7
           NShCPU=      161613 NBCPU=        4930 AvBCPU=        32.8
           NShGPU=           0 NBGPU=           0 AvBGPU=         0.0
 IPart=  3 NShTot=      169843 NShNF=      169843 NShFF=           0 MinMC=       7
           NShCPU=      169843 NBCPU=        4610 AvBCPU=        36.8
           NShGPU=           0 NBGPU=           0 AvBGPU=         0.0
 IPart=  1 NShTot=      159377 NShNF=      159377 NShFF=           0 MinMC=       7
           NShCPU=      159377 NBCPU=        4334 AvBCPU=        36.8
           NShGPU=           0 NBGPU=           0 AvBGPU=         0.0
 IPart= 18 NShTot=      161764 NShNF=      161764 NShFF=           0 MinMC=       7
           NShCPU=      161764 NBCPU=        4275 AvBCPU=        37.8
           NShGPU=           0 NBGPU=           0 AvBGPU=         0.0
 IPart= 16 NShTot=      160268 NShNF=      160268 NShFF=           0 MinMC=       7
           NShCPU=      160268 NBCPU=        4738 AvBCPU=        33.8
           NShGPU=           0 NBGPU=           0 AvBGPU=         0.0
 IPart= 12 NShTot=      159989 NShNF=      159989 NShFF=           0 MinMC=       7
           NShCPU=      159989 NBCPU=        4472 AvBCPU=        35.8
           NShGPU=           0 NBGPU=           0 AvBGPU=         0.0
 IPart= 15 NShTot=      155078 NShNF=      155078 NShFF=           0 MinMC=       7
           NShCPU=      155078 NBCPU=        4478 AvBCPU=        34.6
           NShGPU=           0 NBGPU=           0 AvBGPU=         0.0
 IPart= 17 NShTot=      163731 NShNF=      163731 NShFF=           0 MinMC=       7
           NShCPU=      163731 NBCPU=        4664 AvBCPU=        35.1
           NShGPU=           0 NBGPU=           0 AvBGPU=         0.0
 IPart=  6 NShTot=      168273 NShNF=      168273 NShFF=           0 MinMC=       7
           NShCPU=      168273 NBCPU=        4871 AvBCPU=        34.5
           NShGPU=           0 NBGPU=           0 AvBGPU=         0.0
 IPart= 13 NShTot=      163954 NShNF=      163954 NShFF=           0 MinMC=       7
           NShCPU=      163954 NBCPU=        4610 AvBCPU=        35.6
           NShGPU=           0 NBGPU=           0 AvBGPU=         0.0
 IPart=  9 NShTot=      172570 NShNF=      172570 NShFF=           0 MinMC=       7
           NShCPU=      172570 NBCPU=        4871 AvBCPU=        35.4
           NShGPU=           0 NBGPU=           0 AvBGPU=         0.0
 IPart=  2 NShTot=      162246 NShNF=      162246 NShFF=           0 MinMC=       7
           NShCPU=      162246 NBCPU=        4548 AvBCPU=        35.7
           NShGPU=           0 NBGPU=           0 AvBGPU=         0.0
 IPart=  7 NShTot=      161989 NShNF=      161989 NShFF=           0 MinMC=       7
           NShCPU=      161989 NBCPU=        4359 AvBCPU=        37.2
           NShGPU=           0 NBGPU=           0 AvBGPU=         0.0
 IPart=  5 NShTot=      156915 NShNF=      156915 NShFF=           0 MinMC=       7
           NShCPU=      156915 NBCPU=        4538 AvBCPU=        34.6
           NShGPU=           0 NBGPU=           0 AvBGPU=         0.0
 IPart= 19 NShTot=      157106 NShNF=      157106 NShFF=           0 MinMC=       7
           NShCPU=      157106 NBCPU=        4170 AvBCPU=        37.7
           NShGPU=           0 NBGPU=           0 AvBGPU=         0.0
 IPart=  0 NShTot=      167159 NShNF=      167159 NShFF=           0 MinMC=       7
           NShCPU=      167159 NBCPU=        4329 AvBCPU=        38.6
           NShGPU=           0 NBGPU=           0 AvBGPU=         0.0
 IPart= 21 NShTot=      160820 NShNF=      160820 NShFF=           0 MinMC=       7
           NShCPU=      160820 NBCPU=        4684 AvBCPU=        34.3
           NShGPU=           0 NBGPU=           0 AvBGPU=         0.0
 CoulSu:  NxtVal=        4359169 LenVP=      207357362 MinMC=       7.
 ReadGW:  IGet=0 IStart=           1 Next=           1 LGW=           0.
 Remaining memory in FofDFT     4351.94 Mw
 CkSvGd:  ISavGI=        -1 IRadAn=       5 IRASav=       5 ISavGd=        -1.
 CalDSu-InSpLW:  IPartL=    0 NPrtUS=   22 NPrtUL=    1 DoSpLW=F IThBeg=    0 IThEnd=   21 NThAct=   22.
 CalDSu:  NPrtUS=  22 ThrOK=T IAlg=1 NPAlg=2 DoDPD=T LenP=       15931 LenD1P=             0 GPUOK=F
          ISkipM=0 DoSpLW=F IThBeg=    0 IThEnd=   21.
 IPart=  0 IRanGd=          0 ScrnBf=T ScrnGd=T RCrit=4.00D+00 DoMicB=T.
 IPart= 20        12830 of        14376 points in      15 batches and       62 microbatches, Max-NSigAt=      14 Max-NSgAt2=      14
 IPart=  4        12399 of        13752 points in      12 batches and       72 microbatches, Max-NSigAt=      14 Max-NSgAt2=      14
 IPart=  5        13229 of        14792 points in      14 batches and       53 microbatches, Max-NSigAt=      14 Max-NSgAt2=      14
 IPart= 10        12097 of        12818 points in      10 batches and       51 microbatches, Max-NSigAt=      14 Max-NSgAt2=      14
 IPart=  7        13296 of        15544 points in      14 batches and       74 microbatches, Max-NSigAt=      14 Max-NSgAt2=      14
 IPart=  2        13905 of        16048 points in      15 batches and       71 microbatches, Max-NSigAt=      14 Max-NSgAt2=      14
 IPart=  0        14153 of        15992 points in      14 batches and       75 microbatches, Max-NSigAt=      14 Max-NSgAt2=      14
 IPart= 16        11805 of        13120 points in      13 batches and       87 microbatches, Max-NSigAt=      14 Max-NSgAt2=      14
 IPart= 14        11545 of        14068 points in      16 batches and       80 microbatches, Max-NSigAt=      14 Max-NSgAt2=      14
 IPart= 15        11592 of        13268 points in      14 batches and       79 microbatches, Max-NSigAt=      14 Max-NSgAt2=      14
 IPart=  9        12893 of        14708 points in      14 batches and       67 microbatches, Max-NSigAt=      14 Max-NSgAt2=      14
 IPart=  3        16213 of        18500 points in      17 batches and       55 microbatches, Max-NSigAt=      14 Max-NSgAt2=      14
 IPart=  6        12768 of        13752 points in      13 batches and       69 microbatches, Max-NSigAt=      14 Max-NSgAt2=      14
 IPart= 11        12620 of        14370 points in      14 batches and       73 microbatches, Max-NSigAt=      14 Max-NSgAt2=      14
 IPart= 13        13572 of        15270 points in      11 batches and       56 microbatches, Max-NSigAt=      14 Max-NSgAt2=      14
 IPart= 12        11211 of        12474 points in      14 batches and       94 microbatches, Max-NSigAt=      14 Max-NSgAt2=      14
 IPart= 18        11011 of        12474 points in      14 batches and       98 microbatches, Max-NSigAt=      14 Max-NSgAt2=      14
 IPart= 17        11352 of        13064 points in      14 batches and       98 microbatches, Max-NSigAt=      14 Max-NSgAt2=      14
 IPart= 21        14763 of        16984 points in      15 batches and       64 microbatches, Max-NSigAt=      14 Max-NSgAt2=      14
 IPart=  1        13225 of        14988 points in      15 batches and       83 microbatches, Max-NSigAt=      14 Max-NSgAt2=      14
 IPart=  8        13594 of        14686 points in      12 batches and       81 microbatches, Max-NSigAt=      14 Max-NSgAt2=      14
 IPart= 19        15568 of        18092 points in      16 batches and       62 microbatches, Max-NSigAt=      14 Max-NSgAt2=      14
 Polarizability after L703:
                1             2             3 
      1  0.000000D+00
      2  0.000000D+00  0.000000D+00
      3  0.000000D+00  0.000000D+00  0.000000D+00
 Dipole Derivatives after L703:
                 1             2             3             4             5 
      1  -0.493093D+00 -0.284246D+00  0.161635D+00  0.238247D+00 -0.676010D+00
      2  -0.218799D+00 -0.834287D+00  0.471756D+00  0.348806D-01  0.155999D+00
      3  -0.300153D+00  0.313797D+00 -0.798200D+00  0.105635D+00 -0.430036D+00
                 6             7             8             9            10 
      1   0.621191D+00  0.880439D+00  0.978667D+00  0.799529D-01 -0.369237D+00
      2  -0.227546D-01  0.487058D+00  0.745434D+00  0.132593D-01 -0.100995D+00
      3   0.494736D+00  0.159666D+00  0.162453D+00  0.138149D+00 -0.227071D+00
                11            12            13            14            15 
      1  -0.634534D-01 -0.799987D+00  0.171040D+00  0.295747D+00 -0.202124D+00
      2  -0.697382D+00 -0.750541D-01 -0.453271D-01  0.687993D+00 -0.445437D+00
      3   0.275165D+00 -0.615706D-01  0.846265D-01 -0.422969D+00  0.507888D+00
                16            17            18            19            20 
      1  -0.108254D+01 -0.173104D+00  0.206021D+00  0.372897D+00  0.620366D-04
      2  -0.320295D+00 -0.265780D+00 -0.282151D+00  0.780261D-01  0.278555D+00
      3   0.334725D-01 -0.320273D-01 -0.151530D+01  0.835380D-01  0.136440D-01
                21            22            23            24            25 
      1  -0.133931D+00  0.212211D+00  0.240777D-01  0.758789D-01 -0.104016D+01
      2   0.461990D-01  0.307433D-01  0.306185D+00  0.287291D+00  0.117860D+00
      3   0.351137D+00  0.582299D-01  0.171208D+00  0.840997D+00  0.417878D-01
                26            27            28            29            30 
      1  -0.665265D-01 -0.365090D-02  0.551039D+00 -0.214676D+00 -0.638852D-01
      2  -0.166122D+01  0.225269D+00 -0.793207D+00  0.524310D+00  0.936310D-01
      3  -0.187215D+00 -0.846591D+00 -0.460409D-02  0.166348D-01  0.176175D+00
                31            32            33            34            35 
      1   0.406885D+00  0.229110D+00  0.766465D-01  0.196422D+00 -0.450075D-01
      2   0.766239D+00  0.851406D+00  0.184396D+00 -0.287113D-01  0.384557D-01
      3  -0.890846D-02 -0.349143D-01  0.138905D+00 -0.275582D-01  0.166014D+00
                36            37            38            39            40 
      1  -0.173993D-01  0.197339D+00  0.371205D+00  0.387733D+00 -0.241492D+00
      2  -0.487590D+00 -0.412485D+00 -0.699806D+00 -0.363223D+00  0.405011D+00
      3   0.697659D+00 -0.288279D+00 -0.242116D+00 -0.634644D+00  0.289618D+00
                41            42 
      1  -0.375844D+00 -0.388082D+00
      2   0.570141D+00  0.354408D+00
      3   0.230361D+00  0.510661D+00
 Hessian after L703:
                1             2             3             4             5 
      1  0.541831D+00
      2  0.166645D+00  0.539993D+00
      3  0.317019D+00 -0.145337D+00  0.540103D+00
      4 -0.535595D-01  0.188077D-01 -0.308009D-01  0.474838D-01
      5  0.217802D-01 -0.208826D+00  0.146668D+00 -0.211042D-01  0.215143D+00
      6 -0.322498D-01  0.143169D+00 -0.172814D+00  0.389694D-01 -0.159997D+00
      7 -0.157315D+00 -0.145149D+00 -0.163358D-01  0.509251D-02  0.411891D-02
      8 -0.148278D+00 -0.232803D+00 -0.454060D-02 -0.127325D-01 -0.112678D-01
      9 -0.136269D-01 -0.119242D-02 -0.481865D-01  0.116236D-01  0.143676D-01
     10 -0.312946D+00 -0.315194D-01 -0.242129D+00  0.288798D-02 -0.635995D-03
     11 -0.252058D-01 -0.101578D+00  0.112420D-01  0.178181D-01  0.528997D-02
     12 -0.248557D+00  0.508052D-02 -0.311497D+00 -0.161535D-01 -0.213956D-03
     13  0.148610D-02  0.174190D-01 -0.184797D-01  0.193723D-02 -0.367401D-02
     14 -0.265921D-02  0.497451D-02 -0.140323D-02 -0.381409D-02  0.331990D-02
     15 -0.319918D-02  0.197657D-01 -0.110233D-01 -0.714406D-02  0.223059D-02
     16 -0.196606D-01 -0.181701D-01 -0.160438D-01 -0.224401D-02  0.109260D-02
     17 -0.838538D-02  0.201701D-02 -0.520402D-02  0.257200D-02 -0.170380D-02
     18 -0.189985D-01 -0.182548D-01  0.289830D-02  0.318228D-02 -0.212003D-02
[...]
 Alpha virt. eigenvalues --    2.25451   2.27846   2.35297   2.36331   2.39621
 Alpha virt. eigenvalues --    2.47752   2.51852   2.54606   2.54956   2.58126
 Alpha virt. eigenvalues --    2.61180   2.64289   2.65232   2.67140   2.68509
 Alpha virt. eigenvalues --    2.70547   2.72808   2.80648   2.83652   2.85081
 Alpha virt. eigenvalues --    2.86470   2.91879   2.95255   3.00369   3.11178
 Alpha virt. eigenvalues --    3.16537   3.16904   3.19966   3.26400   3.40092
 Alpha virt. eigenvalues --    3.57487   3.78399   3.80276   3.85112   3.86958
 Alpha virt. eigenvalues --    3.89853   4.03250   4.19243   4.45207   5.06510
 Alpha virt. eigenvalues --    5.11274   5.54607  23.84712  23.97462  24.06544
 Alpha virt. eigenvalues --   24.34407  49.94779
  Beta  occ. eigenvalues --  -19.66035 -10.55088 -10.54720 -10.53802 -10.53135
  Beta  occ. eigenvalues --   -1.06400  -0.91144  -0.82732  -0.73371  -0.62462
  Beta  occ. eigenvalues --   -0.55966  -0.52943  -0.51868  -0.49796  -0.46160
  Beta  occ. eigenvalues --   -0.42411  -0.41852  -0.40446  -0.39155  -0.32608
  Beta virt. eigenvalues --   -0.09897  -0.00344   0.01311   0.01420   0.01955
  Beta virt. eigenvalues --    0.03535   0.03915   0.04218   0.04771   0.06060
  Beta virt. eigenvalues --    0.07712   0.09227   0.10072   0.10952   0.12182
  Beta virt. eigenvalues --    0.12747   0.13186   0.13660   0.13957   0.14826
  Beta virt. eigenvalues --    0.14879   0.15081   0.15748   0.16561   0.17457
  Beta virt. eigenvalues --    0.18722   0.20243   0.21017   0.22283   0.24084
  Beta virt. eigenvalues --    0.24895   0.25042   0.25867   0.27134   0.28735
  Beta virt. eigenvalues --    0.30096   0.31009   0.32115   0.33971   0.38229
  Beta virt. eigenvalues --    0.38399   0.40895   0.43417   0.46838   0.49015
  Beta virt. eigenvalues --    0.49209   0.51701   0.56153   0.57267   0.59119
  Beta virt. eigenvalues --    0.61435   0.62727   0.64295   0.65944   0.68345
  Beta virt. eigenvalues --    0.69767   0.70468   0.71931   0.73979   0.76087
  Beta virt. eigenvalues --    0.80191   0.80517   0.82196   0.85301   0.88315
  Beta virt. eigenvalues --    0.94952   0.97400   1.01489   1.06686   1.09576
  Beta virt. eigenvalues --    1.11199   1.14761   1.15645   1.16797   1.22279
  Beta virt. eigenvalues --    1.32227   1.39164   1.40376   1.44623   1.45880
  Beta virt. eigenvalues --    1.48116   1.50959   1.52887   1.53320   1.59100
  Beta virt. eigenvalues --    1.60243   1.63635   1.67167   1.68374   1.69732
  Beta virt. eigenvalues --    1.70918   1.73139   1.79307   1.80824   1.81477
  Beta virt. eigenvalues --    1.85015   1.86812   1.89260   1.97986   1.99224
  Beta virt. eigenvalues --    2.07562   2.10065   2.13269   2.13860   2.19798
  Beta virt. eigenvalues --    2.21707   2.25525   2.27871   2.35322   2.36481
  Beta virt. eigenvalues --    2.39591   2.47737   2.51948   2.54731   2.54985
  Beta virt. eigenvalues --    2.58359   2.61242   2.64422   2.65478   2.67285
  Beta virt. eigenvalues --    2.68706   2.70556   2.72840   2.80745   2.84010
  Beta virt. eigenvalues --    2.85654   2.90470   2.92245   2.95819   3.00557
  Beta virt. eigenvalues --    3.13573   3.18204   3.18525   3.20865   3.29369
  Beta virt. eigenvalues --    3.40188   3.57511   3.79187   3.80348   3.85160
  Beta virt. eigenvalues --    3.87017   3.92449   4.03346   4.19471   4.45476
  Beta virt. eigenvalues --    5.08267   5.19737   5.56951  23.84720  23.97528
  Beta virt. eigenvalues --   24.06556  24.34428  49.94304
          Condensed to atoms (all electrons):
               1          2          3          4          5          6
     1  C    5.642859   0.344783   0.410506  -0.005029  -0.062793   0.270661
     2  H    0.344783   0.542232  -0.037288  -0.003406   0.007481  -0.003174
     3  H    0.410506  -0.037288   0.511729   0.000983  -0.013278  -0.037027
     4  C   -0.005029  -0.003406   0.000983   6.372041   0.353051  -1.025905
     5  H   -0.062793   0.007481  -0.013278   0.353051   0.499020   0.025772
     6  C    0.270661  -0.003174  -0.037027  -1.025905   0.025772   6.781663
     7  H    0.033142  -0.001362   0.003070   0.006234  -0.013525   0.226883
     8  H    0.010755   0.002488  -0.003466  -0.158735  -0.001341   0.592147
     9  C   -0.132197   0.005159   0.012122   0.246271  -0.000363  -0.189513
    10  H    0.005507  -0.004285  -0.000055   0.021251  -0.001654  -0.086352
    11  H   -0.016404   0.001461  -0.000627   0.018190   0.003045  -0.062264
    12  H    0.025402  -0.000356  -0.000474  -0.036286  -0.001823   0.034778
    13  O   -0.007878   0.000327   0.001003   0.012552  -0.011390   0.030071
    14  H   -0.020060   0.000187  -0.000841   0.018750   0.004450   0.028519
               7          8          9         10         11         12
     1  C    0.033142   0.010755  -0.132197   0.005507  -0.016404   0.025402
     2  H   -0.001362   0.002488   0.005159  -0.004285   0.001461  -0.000356
     3  H    0.003070  -0.003466   0.012122  -0.000055  -0.000627  -0.000474
     4  C    0.006234  -0.158735   0.246271   0.021251   0.018190  -0.036286
     5  H   -0.013525  -0.001341  -0.000363  -0.001654   0.003045  -0.001823
     6  C    0.226883   0.592147  -0.189513  -0.086352  -0.062264   0.034778
     7  H    0.653505  -0.095055  -0.015062   0.016613  -0.014516  -0.020545
     8  H   -0.095055   0.562857  -0.106957  -0.016870  -0.005507   0.015038
     9  C   -0.015062  -0.106957   5.513449   0.446598   0.438450   0.340067
    10  H    0.016613  -0.016870   0.446598   0.548555  -0.023414  -0.065822
    11  H   -0.014516  -0.005507   0.438450  -0.023414   0.522444  -0.028081
    12  H   -0.020545   0.015038   0.340067  -0.065822  -0.028081   0.581448
    13  O    0.019160   0.006160  -0.033047  -0.000793   0.000602  -0.005460
    14  H   -0.043189   0.002373   0.004322  -0.000538   0.002431  -0.000987
              13         14
     1  C   -0.007878  -0.020060
     2  H    0.000327   0.000187
     3  H    0.001003  -0.000841
     4  C    0.012552   0.018750
     5  H   -0.011390   0.004450
     6  C    0.030071   0.028519
     7  H    0.019160  -0.043189
     8  H    0.006160   0.002373
     9  C   -0.033047   0.004322
    10  H   -0.000793  -0.000538
    11  H    0.000602   0.002431
    12  H   -0.005460  -0.000987
    13  O    7.976484   0.269832
    14  H    0.269832   0.484399
          Atomic-Atomic Spin Densities.
               1          2          3          4          5          6
     1  C    0.099908  -0.002324   0.000908  -0.041408  -0.006515  -0.064167
     2  H   -0.002324  -0.001009  -0.000049  -0.000229   0.000163   0.005582
     3  H    0.000908  -0.000049  -0.001841  -0.001128   0.000100  -0.001169
     4  C   -0.041408  -0.000229  -0.001128  -0.060868   0.007701   0.133202
     5  H   -0.006515   0.000163   0.000100   0.007701   0.000753   0.002451
     6  C   -0.064167   0.005582  -0.001169   0.133202   0.002451   0.061005
     7  H    0.051468  -0.002616   0.001719  -0.070656  -0.007280   0.051783
     8  H   -0.016174   0.000694  -0.000193   0.024295   0.000734  -0.016717
     9  C    0.013997  -0.001704   0.000456  -0.033772  -0.000913   0.024423
    10  H    0.011390  -0.000863   0.000152  -0.011586  -0.000344  -0.004678
    11  H   -0.001083   0.000030   0.000094   0.005260   0.000021  -0.004668
    12  H   -0.007958   0.000786  -0.000291   0.007449   0.000426   0.001919
    13  O   -0.016306   0.000596  -0.000398   0.024433   0.003102  -0.026727
    14  H    0.002917  -0.000148   0.000080  -0.002766  -0.000747  -0.003535
               7          8          9         10         11         12
     1  C    0.051468  -0.016174   0.013997   0.011390  -0.001083  -0.007958
     2  H   -0.002616   0.000694  -0.001704  -0.000863   0.000030   0.000786
     3  H    0.001719  -0.000193   0.000456   0.000152   0.000094  -0.000291
     4  C   -0.070656   0.024295  -0.033772  -0.011586   0.005260   0.007449
     5  H   -0.007280   0.000734  -0.000913  -0.000344   0.000021   0.000426
     6  C    0.051783  -0.016717   0.024423  -0.004678  -0.004668   0.001919
     7  H    0.015056  -0.018210  -0.000758   0.004208  -0.003599  -0.001014
     8  H   -0.018210   0.023242   0.002519  -0.005627   0.000653   0.001875
     9  C   -0.000758   0.002519  -0.019901   0.003638   0.002598  -0.002257
    10  H    0.004208  -0.005627   0.003638   0.014534  -0.000697  -0.002018
    11  H   -0.003599   0.000653   0.002598  -0.000697  -0.000248   0.000140
    12  H   -0.001014   0.001875  -0.002257  -0.002018   0.000140   0.001041
    13  O   -0.059857   0.008612   0.006479  -0.000983   0.000717   0.001536
    14  H    0.007913  -0.001251   0.001063   0.000432  -0.000159  -0.000830
              13         14
     1  C   -0.016306   0.002917
     2  H    0.000596  -0.000148
     3  H   -0.000398   0.000080
     4  C    0.024433  -0.002766
     5  H    0.003102  -0.000747
     6  C   -0.026727  -0.003535
     7  H   -0.059857   0.007913
     8  H    0.008612  -0.001251
     9  C    0.006479   0.001063
    10  H   -0.000983   0.000432
    11  H    0.000717  -0.000159
    12  H    0.001536  -0.000830
    13  O    0.928491   0.012259
    14  H    0.012259  -0.033365
 Mulliken charges and spin densities:
               1          2
     1  C   -0.499254   0.024655
     2  H    0.145751  -0.001092
     3  H    0.153644  -0.001559
     4  C    0.180039  -0.020073
     5  H    0.213346  -0.000347
     6  C   -0.586260   0.158703
     7  H    0.244646  -0.031844
     8  H    0.196113   0.004454
     9  C   -0.529301  -0.004133
    10  H    0.161259   0.007556
    11  H    0.164190  -0.000940
    12  H    0.163099   0.000802
    13  O   -0.257624   0.881954
    14  H    0.250350  -0.018137
 Sum of Mulliken charges =  -0.00000   1.00000
 Mulliken charges and spin densities with hydrogens summed into heavy atoms:
               1          2
     1  C   -0.199858   0.022004
     4  C    0.393384  -0.020420
     6  C   -0.145500   0.131313
     9  C   -0.040752   0.003285
    13  O   -0.007274   0.863817
 APT charges:
               1
     1  C   -0.723226
     2  H    0.301801
     3  H    0.583715
     4  C   -0.374964
     5  H    0.448521
     6  C   -0.957272
     7  H    0.339682
     8  H    0.446912
     9  C   -1.194953
    10  H    0.421734
    11  H    0.459954
    12  H    0.304463
    13  O   -0.324628
    14  H    0.268261
 Sum of APT charges =  -0.00000
 APT charges with hydrogens summed into heavy atoms:
               1
     1  C    0.162290
     4  C    0.073556
     6  C   -0.170678
     9  C   -0.008802
    13  O   -0.056366
 Electronic spatial extent (au):  <R**2>=            585.5804
 Charge=             -0.0000 electrons
 Dipole moment (field-independent basis, Debye):
    X=             -1.4511    Y=             -0.1551    Z=             -0.4054  Tot=              1.5146
 Quadrupole moment (field-independent basis, Debye-Ang):
   XX=            -38.9832   YY=            -31.1742   ZZ=            -31.6740
   XY=              0.9183   XZ=              0.2000   YZ=              1.1708
 Traceless Quadrupole moment (field-independent basis, Debye-Ang):
   XX=             -5.0394   YY=              2.7696   ZZ=              2.2698
   XY=              0.9183   XZ=              0.2000   YZ=              1.1708
 Octapole moment (field-independent basis, Debye-Ang**2):
  XXX=             -1.3687  YYY=             -8.2667  ZZZ=             -0.1645  XYY=              3.8615
  XXY=             -1.9958  XXZ=             -4.4607  XZZ=              5.6602  YZZ=             -3.2389
  YYZ=             -0.7921  XYZ=              3.6208
 Hexadecapole moment (field-independent basis, Debye-Ang**3):
 XXXX=           -446.3816 YYYY=           -260.2633 ZZZZ=           -102.4938 XXXY=              6.6929
 XXXZ=              5.7596 YYYX=             -2.2626 YYYZ=              3.7404 ZZZX=             -2.9828
 ZZZY=              1.4275 XXYY=           -102.9328 XXZZ=            -85.0052 YYZZ=            -59.8345
 XXYZ=              7.1368 YYXZ=             -5.6193 ZZXY=             -5.3141
 N-N= 1.706138321336D+02 E-N=-8.840991108732D+02  KE= 2.320376289712D+02
  Exact polarizability:   0.000   0.000   0.000   0.000   0.000   0.000
 Approx polarizability:  77.145  -1.318  58.866   8.400   2.640  65.030
                          Isotropic Fermi Contact Couplings
        Atom                 a.u.       MegaHertz       Gauss      10(-4) cm-1
     1  C(13)              0.00425       4.77882       1.70520       1.59404
     2  H(1)              -0.00044      -1.98223      -0.70731      -0.66120
     3  H(1)              -0.00038      -1.70117      -0.60702      -0.56745
     4  C(13)             -0.00722      -8.11124      -2.89429      -2.70562
     5  H(1)               0.00018       0.79142       0.28240       0.26399
     6  C(13)              0.06519      73.29135      26.15218      24.44736
     7  H(1)              -0.00026      -1.17323      -0.41864      -0.39135
     8  H(1)               0.00100       4.47303       1.59609       1.49204
     9  C(13)             -0.00435      -4.88528      -1.74319      -1.62955
    10  H(1)               0.00316      14.13508       5.04375       4.71496
    11  H(1)               0.00041       1.83836       0.65597       0.61321
    12  H(1)               0.00042       1.86291       0.66473       0.62140
    13  O(17)              0.12225     -74.10519     -26.44258     -24.71883
    14  H(1)              -0.01462     -65.32824     -23.31074     -21.79115
 --------------------------------------------------------
       Center         ----  Spin Dipole Couplings  ----
                      3XX-RR        3YY-RR        3ZZ-RR
 --------------------------------------------------------
     1   Atom        0.000260     -0.005895      0.005635
     2   Atom        0.001774     -0.001370     -0.000404
     3   Atom        0.002640     -0.000182     -0.002458
     4   Atom        0.006711     -0.001354     -0.005356
     5   Atom        0.004165     -0.001348     -0.002817
     6   Atom        0.143142     -0.052568     -0.090575
     7   Atom        0.056075     -0.022681     -0.033394
     8   Atom       -0.003192     -0.009623      0.012815
     9   Atom        0.000946      0.003603     -0.004549
    10   Atom        0.000933      0.001246     -0.002179
    11   Atom       -0.002678      0.006599     -0.003921
    12   Atom        0.000187      0.000396     -0.000583
    13   Atom        1.053741     -0.419134     -0.634607
    14   Atom        0.048174     -0.036361     -0.011813
 --------------------------------------------------------
                        XY            XZ            YZ
 --------------------------------------------------------
     1   Atom       -0.009222     -0.014446      0.015432
     2   Atom       -0.001222      0.001452     -0.001294
     3   Atom        0.002569     -0.000286      0.000781
     4   Atom        0.009616      0.007594     -0.004263
     5   Atom        0.003795     -0.003589     -0.000944
     6   Atom       -0.117353     -0.063928      0.030436
     7   Atom       -0.070477     -0.051973      0.036705
     8   Atom       -0.005631     -0.002827      0.009550
     9   Atom       -0.008463      0.002255     -0.003476
    10   Atom       -0.003713      0.000205     -0.000983
    11   Atom       -0.002350     -0.000737     -0.001199
    12   Atom       -0.005056      0.002781     -0.004128
    13   Atom       -1.910775     -1.745917      1.194485
    14   Atom        0.060302      0.080814      0.095309
 --------------------------------------------------------


 ---------------------------------------------------------------------------------
              Anisotropic Spin Dipole Couplings in Principal Axis System
 ---------------------------------------------------------------------------------

       Atom             a.u.   MegaHertz   Gauss  10(-4) cm-1        Axes

              Baa    -0.0167    -2.235    -0.798    -0.746 -0.0817  0.7939 -0.6025
     1 C(13)  Bbb    -0.0106    -1.418    -0.506    -0.473  0.8401  0.3802  0.3870
              Bcc     0.0272     3.653     1.304     1.219 -0.5363  0.4746  0.6980
 
              Baa    -0.0023    -1.216    -0.434    -0.406  0.0635  0.8438  0.5329
     2 H(1)   Bbb    -0.0009    -0.456    -0.163    -0.152 -0.5791 -0.4037  0.7083
              Bcc     0.0031     1.672     0.597     0.558  0.8128 -0.3536  0.4630
 
              Baa    -0.0030    -1.592    -0.568    -0.531  0.2585 -0.4722  0.8427
     3 H(1)   Bbb    -0.0012    -0.630    -0.225    -0.210 -0.4424  0.7177  0.5378
              Bcc     0.0042     2.221     0.793     0.741  0.8588  0.5118  0.0233
 
              Baa    -0.0146    -1.965    -0.701    -0.655 -0.4906  0.5672  0.6615
     4 C(13)  Bbb     0.0006     0.080     0.029     0.027  0.1790 -0.6773  0.7136
              Bcc     0.0140     1.885     0.673     0.629  0.8528  0.4685  0.2308
 
              Baa    -0.0045    -2.425    -0.865    -0.809  0.4784 -0.3271  0.8150
     5 H(1)   Bbb    -0.0028    -1.520    -0.542    -0.507 -0.2203  0.8537  0.4719
              Bcc     0.0074     3.945     1.408     1.316  0.8501  0.4053 -0.3363
 
              Baa    -0.1078   -14.462    -5.160    -4.824  0.2635  0.8307 -0.4905
     6 C(13)  Bbb    -0.1067   -14.324    -5.111    -4.778  0.3905  0.3730  0.8416
              Bcc     0.2145    28.786    10.272     9.602  0.8821 -0.4133 -0.2261
 
              Baa    -0.0671   -35.812   -12.779   -11.946  0.2677  0.8295 -0.4902
     7 H(1)   Bbb    -0.0560   -29.887   -10.665    -9.969  0.5461  0.2885  0.7865
              Bcc     0.1231    65.699    23.443    21.915  0.7938 -0.4782 -0.3757
 
              Baa    -0.0148    -7.913    -2.824    -2.640  0.3653  0.8908 -0.2703
     8 H(1)   Bbb    -0.0026    -1.364    -0.487    -0.455  0.9035 -0.2693  0.3335
              Bcc     0.0174     9.277     3.310     3.095 -0.2242  0.3661  0.9032
 
              Baa    -0.0066    -0.882    -0.315    -0.294  0.6014  0.6559  0.4562
     9 C(13)  Bbb    -0.0053    -0.711    -0.254    -0.237 -0.4978 -0.1390  0.8561
              Bcc     0.0119     1.593     0.568     0.531 -0.6249  0.7419 -0.2429
 
              Baa    -0.0030    -1.606    -0.573    -0.536  0.5404  0.6062  0.5836
    10 H(1)   Bbb    -0.0019    -1.013    -0.361    -0.338 -0.4943 -0.3326  0.8031
              Bcc     0.0049     2.619     0.935     0.874 -0.6809  0.7225 -0.1199
 
              Baa    -0.0047    -2.502    -0.893    -0.834  0.5334  0.1984  0.8223
    11 H(1)   Bbb    -0.0026    -1.367    -0.488    -0.456  0.8159  0.1358 -0.5620
              Bcc     0.0072     3.868     1.380     1.290 -0.2231  0.9707 -0.0895
 
              Baa    -0.0051    -2.735    -0.976    -0.912  0.5339  0.7623  0.3658
    12 H(1)   Bbb    -0.0030    -1.598    -0.570    -0.533 -0.6116  0.0494  0.7896
              Bcc     0.0081     4.333     1.546     1.445 -0.5838  0.6454 -0.4926
 
              Baa    -1.7322   125.342    44.725    41.809  0.6805  0.5560  0.4773
    13 O(17)  Bbb    -1.7262   124.907    44.570    41.664  0.0155 -0.6621  0.7492
              Bcc     3.4584  -250.248   -89.295   -83.474  0.7326 -0.5025 -0.4591
 
              Baa    -0.1207   -64.423   -22.988   -21.489  0.0692  0.7248 -0.6855
    14 H(1)   Bbb    -0.0407   -21.695    -7.741    -7.237  0.7441 -0.4952 -0.4484
              Bcc     0.1614    86.119    30.729    28.726  0.6645  0.4790  0.5736
 

 ---------------------------------------------------------------------------------


 This type of calculation cannot be archived.


 THE ... SCIENTISTS WERE WRONG ... THE MOST PERSISTENT PRINCIPLES 
 OF THE UNIVERSE WERE ACCIDENT AND ERROR.

                          -- FRANK HERBERT IN DUNE
 Job cpu time:       0 days 11 hours 30 minutes 55.5 seconds.
 Elapsed time:       0 days  0 hours 31 minutes 49.6 seconds.
 File lengths (MBytes):  RWF=    139 Int=      0 D2E=      0 Chk=      7 Scr=      2
 Normal termination of Gaussian 16 at Wed Mar  3 11:29:34 2021.
