 Entering Gaussian System, Link 0=g09
 Input=/home/zxc/alkene/bhand/vtst-add/c4/c4-1/RA4-TER/irc.gjf
 Output=/home/zxc/alkene/bhand/vtst-add/c4/c4-1/RA4-TER/irc.log
 Initial command:
 /opt/soft/g09/l1.exe "/home/tmp/Gau-117950.inp" -scrdir="/home/tmp/"
 Entering Link 1 = /opt/soft/g09/l1.exe PID=    117951.
  
 Copyright (c) 1988,1990,1992,1993,1995,1998,2003,2009,2013,
            Gaussian, Inc.  All Rights Reserved.
  
 This is part of the Gaussian(R) 09 program.  It is based on
 the Gaussian(R) 03 system (copyright 2003, Gaussian, Inc.),
 the Gaussian(R) 98 system (copyright 1998, Gaussian, Inc.),
 the Gaussian(R) 94 system (copyright 1995, Gaussian, Inc.),
 the Gaussian 92(TM) system (copyright 1992, Gaussian, Inc.),
 the Gaussian 90(TM) system (copyright 1990, Gaussian, Inc.),
 the Gaussian 88(TM) system (copyright 1988, Gaussian, Inc.),
 the Gaussian 86(TM) system (copyright 1986, Carnegie Mellon
 University), and the Gaussian 82(TM) system (copyright 1983,
 Carnegie Mellon University). Gaussian is a federally registered
 trademark of Gaussian, Inc.
  
 This software contains proprietary and confidential information,
 including trade secrets, belonging to Gaussian, Inc.
  
 This software is provided under written license and may be
 used, copied, transmitted, or stored only in accord with that
 written license.
  
 The following legend is applicable only to US Government
 contracts under FAR:
  
                    RESTRICTED RIGHTS LEGEND
  
 Use, reproduction and disclosure by the US Government is
 subject to restrictions as set forth in subparagraphs (a)
 and (c) of the Commercial Computer Software - Restricted
 Rights clause in FAR 52.227-19.
  
 Gaussian, Inc.
 340 Quinnipiac St., Bldg. 40, Wallingford CT 06492
  
  
 ---------------------------------------------------------------
 Warning -- This program may not be used in any manner that
 competes with the business of Gaussian, Inc. or will provide
 assistance to any competitor of Gaussian, Inc.  The licensee
 of this program is prohibited from giving any competitor of
 Gaussian, Inc. access to this program.  By using this program,
 the user acknowledges that Gaussian, Inc. is engaged in the
 business of creating and licensing software in the field of
 computational chemistry and represents and warrants to the
 licensee that it is not a competitor of Gaussian, Inc. and that
 it will not use this program in any manner prohibited above.
 ---------------------------------------------------------------
  

 Cite this work as:
 Gaussian 09, Revision D.01,
 M. J. Frisch, G. W. Trucks, H. B. Schlegel, G. E. Scuseria, 
 M. A. Robb, J. R. Cheeseman, G. Scalmani, V. Barone, B. Mennucci, 
 G. A. Petersson, H. Nakatsuji, M. Caricato, X. Li, H. P. Hratchian, 
 A. F. Izmaylov, J. Bloino, G. Zheng, J. L. Sonnenberg, M. Hada, 
 M. Ehara, K. Toyota, R. Fukuda, J. Hasegawa, M. Ishida, T. Nakajima, 
 Y. Honda, O. Kitao, H. Nakai, T. Vreven, J. A. Montgomery, Jr., 
 J. E. Peralta, F. Ogliaro, M. Bearpark, J. J. Heyd, E. Brothers, 
 K. N. Kudin, V. N. Staroverov, T. Keith, R. Kobayashi, J. Normand, 
 K. Raghavachari, A. Rendell, J. C. Burant, S. S. Iyengar, J. Tomasi, 
 M. Cossi, N. Rega, J. M. Millam, M. Klene, J. E. Knox, J. B. Cross, 
 V. Bakken, C. Adamo, J. Jaramillo, R. Gomperts, R. E. Stratmann, 
 O. Yazyev, A. J. Austin, R. Cammi, C. Pomelli, J. W. Ochterski, 
 R. L. Martin, K. Morokuma, V. G. Zakrzewski, G. A. Voth, 
 P. Salvador, J. J. Dannenberg, S. Dapprich, A. D. Daniels, 
 O. Farkas, J. B. Foresman, J. V. Ortiz, J. Cioslowski, 
 and D. J. Fox, Gaussian, Inc., Wallingford CT, 2013.
 
 ******************************************
 Gaussian 09:  EM64L-G09RevD.01 24-Apr-2013
                15-Mar-2021 
 ******************************************
 %mem=24GB
 %nprocshared=12
 Will use up to   12 processors via shared memory.
 ---------------------------------------------------------------------
 # irc=(calcall,stepsize=3,maxstep=10) 6-311++g(d,p) m062x iop(7/33=1)
 ---------------------------------------------------------------------
 1/8=10,10=4,14=-1,18=10,26=3,38=1,39=3,44=3,71=1/1,23;
 2/12=2,17=6,18=5,29=1,40=1/2;
 3/5=4,6=6,7=1111,11=2,16=1,25=1,30=1,71=2,74=-55,140=1/1,2,3;
 4//1;
 5/5=2,38=5/2;
 8/6=4,10=90,11=11/1;
 11/6=1,8=1,9=11,15=111,16=1/1,2,10;
 10/6=1,13=1/2;
 6/7=2,8=2,9=2,10=2,18=1,28=1/1;
 7/10=1,25=1,33=1/1,2,3,16;
 1/8=10,10=4,14=-1,18=10,26=3,39=3,44=3,71=1/23(2);
 2/29=1/2;
 99/5=20/99;
 2/29=1/2;
 3/5=4,6=6,7=1111,11=2,16=1,25=1,30=1,71=2,74=-55,140=1/1,2,3;
 4/5=5,16=3,69=1/1;
 5/5=2,38=5/2;
 8/6=4,10=90,11=11/1;
 11/6=1,8=1,9=11,15=111,16=1/1,2,10;
 10/6=1,13=1/2;
 7/10=1,25=1,33=1/1,2,3,16;
 1/8=10,10=4,14=-1,18=10,26=3,39=3,44=3,71=1/23(-8);
 2/29=1/2;
 6/7=2,8=2,9=2,10=2,18=1,19=2,28=1/1;
 99/5=20/99;
 -------------------
 Title Card Required
 -------------------
 Symbolic Z-matrix:
 Charge =  0 Multiplicity = 2
 C
 H                    1    B1
 H                    1    B2       2    A1
 C                    1    B3       2    A2       3    D1       0
 H                    4    B4       1    A3       2    D2       0
 C                    4    B5       1    A4       2    D3       0
 H                    6    B6       4    A5       1    D4       0
 H                    6    B7       4    A6       1    D5       0
 C                    6    B8       4    A7       1    D6       0
 H                    9    B9       6    A8       4    D7       0
 H                    9    B10      6    A9       4    D8       0
 H                    9    B11      6    A10      4    D9       0
 O                    1    B12      4    A11      6    D10      0
 H                    13   B13      1    A12      4    D11      0
       Variables:
  B1                    1.08176                  
  B2                    1.08246                  
  B3                    1.35055                  
  B4                    1.08832                  
  B5                    1.49752                  
  B6                    1.09653                  
  B7                    1.09711                  
  B8                    1.5236                   
  B9                    1.09184                  
  B10                   1.09088                  
  B11                   1.09261                  
  B12                   2.15395                  
  B13                   0.96884                  
  A1                  116.7162                   
  A2                  121.74892                  
  A3                  118.45887                  
  A4                  125.27598                  
  A5                  107.65501                  
  A6                  108.32922                  
  A7                  114.77154                  
  A8                  110.13188                  
  A9                  110.42722                  
  A10                 111.26475                  
  A11                  92.59067                  
  A12                  98.52911                  
  D1                  170.53162                  
  D2                 -174.6033                   
  D3                    8.58786                  
  D4                  122.04469                  
  D5                 -124.54808                  
  D6                   -0.42445                  
  D7                   57.86476                  
  D8                  177.76316                  
  D9                  -62.55182                  
  D10                 -78.79823                  
  D11                 -59.63522                  
 
 IRC-IRC-IRC-IRC-IRC-IRC-IRC-IRC-IRC-IRC-IRC-IRC-IRC-IRC-IRC-IRC-IRC-IRC
 ------------------------------------------------------------------------
 INPUT DATA FOR L123
 ------------------------------------------------------------------------
 GENERAL PARAMETERS:
 Follow reaction path in both directions.
 Maximum points per path      =  10
 Step size                    =   0.030 bohr
 Integration scheme           = HPC                                 
    Redo corrector integration= Yes                                 
    DWI Weight Power          =  2
    DWI will use Hessian update vectors when possible.
    Max correction cycles     =  20
 Initial Hessian              = CalcFC
 Hessian evaluation           = Analytic at all predictor steps
                              = Update at all corrector steps
 Hessian updating method      = Bofill                              
 ------------------------------------------------------------------------
 IRC-IRC-IRC-IRC-IRC-IRC-IRC-IRC-IRC-IRC-IRC-IRC-IRC-IRC-IRC-IRC-IRC-IRC
                          Input orientation:                          
 ---------------------------------------------------------------------
 Center     Atomic      Atomic             Coordinates (Angstroms)
 Number     Number       Type             X           Y           Z
 ---------------------------------------------------------------------
      1          6           0        0.000000    0.000000    0.000000
      2          1           0        0.000000    0.000000    1.081760
      3          1           0        0.966902    0.000000   -0.486644
      4          6           0       -1.132814   -0.188925   -0.710658
      5          1           0       -1.058603   -0.267780   -1.793576
      6          6           0       -2.515678   -0.234474   -0.137785
      7          1           0       -3.105647    0.547614   -0.630396
      8          1           0       -2.982229   -1.181164   -0.437378
      9          6           0       -2.586678   -0.056742    1.373751
     10          1           0       -2.132863    0.893522    1.662123
     11          1           0       -3.624620   -0.062061    1.709396
     12          1           0       -2.063468   -0.863480    1.892615
     13          8           0       -0.322871    2.125348    0.134677
     14          1           0       -0.331931    2.329605   -0.812339
 ---------------------------------------------------------------------
                    Distance matrix (angstroms):
                    1          2          3          4          5
     1  C    0.000000
     2  H    1.081760   0.000000
     3  H    1.082461   1.842496   0.000000
     4  C    1.350554   2.128785   2.120067   0.000000
     5  H    2.099824   3.075696   2.425377   1.088318   0.000000
     6  C    2.530336   2.805514   3.507855   1.497522   2.205861
     7  H    3.215948   3.588370   4.111715   2.107368   2.491634
     8  H    3.237304   3.549171   4.122282   2.116496   2.524654
     9  C    2.929388   2.603724   4.011511   2.544790   3.522997
    10  H    2.847831   2.384179   3.876097   2.793185   3.800593
    11  H    4.007962   3.679082   5.090041   3.475897   4.347134
    12  H    2.930101   2.379282   3.948369   2.845729   3.866861
    13  O    2.153947   2.349110   2.562550   2.593542   3.160147
    14  H    2.489404   3.020737   2.687025   2.644759   2.870068
                    6          7          8          9         10
     6  C    0.000000
     7  H    1.096535   0.000000
     8  H    1.097108   1.743892   0.000000
     9  C    1.523604   2.156659   2.168172   0.000000
    10  H    2.158377   2.514279   3.071424   1.091837   0.000000
    11  H    2.161378   2.472987   2.504735   1.090876   1.772205
    12  H    2.173170   3.072931   2.524660   1.092609   1.773415
    13  O    3.232862   3.289137   4.281641   3.379592   2.669561
    14  H    3.434863   3.301833   4.414768   3.944303   3.380629
                   11         12         13         14
    11  H    0.000000
    12  H    1.764380   0.000000
    13  O    4.262164   3.879835   0.000000
    14  H    4.787590   4.528885   0.968836   0.000000
 Symmetry turned off by external request.
 Stoichiometry    C4H9O(2)
 Framework group  C1[X(C4H9O)]
 Deg. of freedom    36
 Full point group                 C1      NOp   1
 Rotational constants (GHZ):      6.4375187      3.2825927      2.7737933
 Standard basis: 6-311++G(d,p) (5D, 7F)
   173 basis functions,   261 primitive gaussians,   178 cartesian basis functions
    21 alpha electrons       20 beta electrons
       nuclear repulsion energy       176.4049737093 Hartrees.
 NAtoms=   14 NActive=   14 NUniq=   14 SFac= 1.00D+00 NAtFMM=   60 NAOKFM=F Big=F
 Integral buffers will be    131072 words long.
 Raffenetti 2 integral format.
 Two-electron integral symmetry is turned off.
 One-electron integrals computed using PRISM.
 NBasis=   173 RedAO= T EigKep=  1.33D-05  NBF=   173
 NBsUse=   173 1.00D-06 EigRej= -1.00D+00 NBFU=   173
 ExpMin= 3.60D-02 ExpMax= 8.59D+03 ExpMxC= 1.30D+03 IAcc=3 IRadAn=         5 AccDes= 0.00D+00
 Harris functional with IExCor= 1009 and IRadAn=       5 diagonalized for initial guess.
 HarFok:  IExCor= 1009 AccDes= 0.00D+00 IRadAn=         5 IDoV= 1 UseB2=F ITyADJ=14
 ICtDFT=  3500011 ScaDFX=  1.000000  1.000000  1.000000  1.000000
 FoFCou: FMM=F IPFlag=           0 FMFlag=      100000 FMFlg1=           0
         NFxFlg=           0 DoJE=T BraDBF=F KetDBF=T FulRan=T
         wScrn=  0.000000 ICntrl=     500 IOpCl=  0 I1Cent=   200000004 NGrid=           0
         NMat0=    1 NMatS0=      1 NMatT0=    0 NMatD0=    1 NMtDS0=    0 NMtDT0=    0
 Symmetry not used in FoFCou.
 Initial guess <Sx>= 0.0000 <Sy>= 0.0000 <Sz>= 0.5000 <S**2>= 0.7500 S= 0.5000
 Keep R1 and R2 ints in memory in canonical form, NReq=229532066.
 Requested convergence on RMS density matrix=1.00D-08 within 128 cycles.
 Requested convergence on MAX density matrix=1.00D-06.
 Requested convergence on             energy=1.00D-06.
 No special actions if energy rises.
 SCF Done:  E(UM062X) =  -232.908424213     A.U. after   20 cycles
            NFock= 20  Conv=0.56D-08     -V/T= 2.0039
 <Sx>= 0.0000 <Sy>= 0.0000 <Sz>= 0.5000 <S**2>= 0.7680 S= 0.5090
 <L.S>= 0.000000000000E+00
 Annihilation of the first spin contaminant:
 S**2 before annihilation     0.7680,   after     0.7501
 DoSCS=F DFT=T ScalE2(SS,OS)=  1.000000  1.000000
 Range of M.O.s used for correlation:     1   173
 NBasis=   173 NAE=    21 NBE=    20 NFC=     0 NFV=     0
 NROrb=    173 NOA=    21 NOB=    20 NVA=   152 NVB=   153

 **** Warning!!: The largest alpha MO coefficient is  0.68805460D+02


 **** Warning!!: The largest beta MO coefficient is  0.70177542D+02

 Symmetrizing basis deriv contribution to polar:
 IMax=3 JMax=2 DiffMx= 0.00D+00
 G2DrvN: will do    15 centers at a time, making    1 passes.
 Calling FoFCou, ICntrl=  3107 FMM=F I1Cent=   0 AccDes= 0.00D+00.
 End of G2Drv F.D. properties file   721 does not exist.
 End of G2Drv F.D. properties file   722 does not exist.
 End of G2Drv F.D. properties file   788 does not exist.
          IDoAtm=11111111111111
          Differentiating once with respect to nuclear coordinates.
 Keep R1 and R2 ints in memory in canonical form, NReq=229420363.
          There are    45 degrees of freedom in the 1st order CPHF.  IDoFFX=6 NUNeed=     0.
     42 vectors produced by pass  0 Test12= 1.39D-14 2.22D-09 XBig12= 1.67D-01 1.49D-01.
 AX will form    42 AO Fock derivatives at one time.
     39 vectors produced by pass  1 Test12= 1.39D-14 2.22D-09 XBig12= 2.80D-02 4.05D-02.
     39 vectors produced by pass  2 Test12= 1.39D-14 2.22D-09 XBig12= 9.80D-04 4.00D-03.
     39 vectors produced by pass  3 Test12= 1.39D-14 2.22D-09 XBig12= 1.07D-05 3.67D-04.
     39 vectors produced by pass  4 Test12= 1.39D-14 2.22D-09 XBig12= 1.14D-07 3.76D-05.
     39 vectors produced by pass  5 Test12= 1.39D-14 2.22D-09 XBig12= 1.09D-09 3.45D-06.
     34 vectors produced by pass  6 Test12= 1.39D-14 2.22D-09 XBig12= 9.55D-12 2.89D-07.
     17 vectors produced by pass  7 Test12= 1.39D-14 2.22D-09 XBig12= 8.50D-14 4.30D-08.
     10 vectors produced by pass  8 Test12= 1.39D-14 2.22D-09 XBig12= 4.53D-15 7.91D-09.
      7 vectors produced by pass  9 Test12= 1.39D-14 2.22D-09 XBig12= 3.87D-16 4.41D-09.
      5 vectors produced by pass 10 Test12= 1.39D-14 2.22D-09 XBig12= 4.11D-16 2.78D-09.
      1 vectors produced by pass 11 Test12= 1.39D-14 2.22D-09 XBig12= 2.93D-16 2.75D-09.
 InvSVY:  IOpt=1 It=  1 EMax= 6.11D-16
 Solved reduced A of dimension   311 with    45 vectors.
 End of Minotr F.D. properties file   721 does not exist.
 End of Minotr F.D. properties file   722 does not exist.
 End of Minotr F.D. properties file   788 does not exist.

 **********************************************************************

            Population analysis using the SCF density.

 **********************************************************************

 Alpha  occ. eigenvalues --  -19.63150 -10.56409 -10.55597 -10.54528 -10.52366
 Alpha  occ. eigenvalues --   -1.09038  -0.91655  -0.82867  -0.73576  -0.63219
 Alpha  occ. eigenvalues --   -0.56482  -0.52862  -0.51762  -0.49652  -0.46017
 Alpha  occ. eigenvalues --   -0.45484  -0.41743  -0.41604  -0.40812  -0.38342
 Alpha  occ. eigenvalues --   -0.29876
 Alpha virt. eigenvalues --   -0.00551   0.01089   0.01379   0.01886   0.03722
 Alpha virt. eigenvalues --    0.03943   0.04248   0.04524   0.06105   0.06787
 Alpha virt. eigenvalues --    0.08835   0.10180   0.11002   0.11671   0.12441
 Alpha virt. eigenvalues --    0.12945   0.13280   0.14318   0.14862   0.14974
 Alpha virt. eigenvalues --    0.15771   0.16234   0.16380   0.17308   0.18424
 Alpha virt. eigenvalues --    0.20162   0.21773   0.22289   0.22556   0.24743
 Alpha virt. eigenvalues --    0.25628   0.27178   0.28491   0.29369   0.29579
 Alpha virt. eigenvalues --    0.31372   0.32282   0.33775   0.36201   0.39094
 Alpha virt. eigenvalues --    0.41688   0.43147   0.46821   0.48673   0.49257
 Alpha virt. eigenvalues --    0.51834   0.56142   0.58149   0.59804   0.61244
 Alpha virt. eigenvalues --    0.62533   0.65887   0.68293   0.69163   0.71139
 Alpha virt. eigenvalues --    0.71432   0.72380   0.75248   0.76918   0.78258
 Alpha virt. eigenvalues --    0.80002   0.81340   0.85309   0.87999   0.92065
 Alpha virt. eigenvalues --    0.98776   1.01710   1.05441   1.08789   1.14115
 Alpha virt. eigenvalues --    1.15627   1.19106   1.21100   1.25850   1.30806
 Alpha virt. eigenvalues --    1.39432   1.41171   1.43785   1.47218   1.50722
 Alpha virt. eigenvalues --    1.51812   1.53082   1.57782   1.59994   1.61309
 Alpha virt. eigenvalues --    1.62926   1.64862   1.67888   1.71597   1.73062
 Alpha virt. eigenvalues --    1.75119   1.77540   1.81652   1.82904   1.85991
 Alpha virt. eigenvalues --    1.87749   1.89622   1.96655   2.02415   2.07740
 Alpha virt. eigenvalues --    2.11370   2.12518   2.13034   2.19473   2.21894
 Alpha virt. eigenvalues --    2.25410   2.28857   2.37138   2.37357   2.40809
 Alpha virt. eigenvalues --    2.48682   2.52206   2.53192   2.56529   2.58757
 Alpha virt. eigenvalues --    2.63136   2.65748   2.67215   2.68974   2.71550
 Alpha virt. eigenvalues --    2.72168   2.75396   2.80196   2.83057   2.91184
 Alpha virt. eigenvalues --    2.91888   2.93805   2.96736   3.02146   3.12593
 Alpha virt. eigenvalues --    3.14327   3.16637   3.21405   3.26126   3.39950
 Alpha virt. eigenvalues --    3.55457   3.80333   3.84582   3.85956   3.87664
 Alpha virt. eigenvalues --    3.92545   4.02019   4.17114   4.44396   5.15740
 Alpha virt. eigenvalues --    5.17747   5.60678  23.85363  23.97305  24.07210
 Alpha virt. eigenvalues --   24.26352  50.00217
  Beta  occ. eigenvalues --  -19.61733 -10.56220 -10.55594 -10.54546 -10.52367
  Beta  occ. eigenvalues --   -1.03401  -0.91009  -0.82533  -0.73409  -0.62813
  Beta  occ. eigenvalues --   -0.56133  -0.52232  -0.50344  -0.48282  -0.45794
  Beta  occ. eigenvalues --   -0.41798  -0.41426  -0.40611  -0.35415  -0.33738
  Beta virt. eigenvalues --   -0.07305  -0.00400   0.01220   0.01531   0.02185
  Beta virt. eigenvalues --    0.04009   0.04101   0.04583   0.05129   0.06608
  Beta virt. eigenvalues --    0.06941   0.08738   0.10270   0.11044   0.11849
  Beta virt. eigenvalues --    0.12569   0.12870   0.13843   0.14422   0.14865
  Beta virt. eigenvalues --    0.14912   0.15909   0.16244   0.16389   0.17332
  Beta virt. eigenvalues --    0.18376   0.20258   0.21837   0.22374   0.22614
  Beta virt. eigenvalues --    0.24620   0.25854   0.27313   0.28297   0.29474
  Beta virt. eigenvalues --    0.29691   0.31512   0.32350   0.33759   0.36096
  Beta virt. eigenvalues --    0.39302   0.41907   0.43347   0.46844   0.48727
  Beta virt. eigenvalues --    0.49435   0.51890   0.56379   0.58366   0.60146
  Beta virt. eigenvalues --    0.61804   0.63633   0.65982   0.68411   0.69176
  Beta virt. eigenvalues --    0.71158   0.71546   0.72467   0.75416   0.77146
  Beta virt. eigenvalues --    0.78241   0.80307   0.81560   0.85302   0.88388
  Beta virt. eigenvalues --    0.92823   0.98888   1.02150   1.05691   1.10376
  Beta virt. eigenvalues --    1.14520   1.15743   1.20203   1.22315   1.27521
  Beta virt. eigenvalues --    1.30888   1.39929   1.41519   1.44179   1.47763
  Beta virt. eigenvalues --    1.51328   1.51956   1.53426   1.58636   1.60104
  Beta virt. eigenvalues --    1.61432   1.63264   1.65303   1.68118   1.71803
  Beta virt. eigenvalues --    1.73209   1.75265   1.77899   1.82010   1.83011
  Beta virt. eigenvalues --    1.86387   1.88047   1.89877   1.96870   2.02565
  Beta virt. eigenvalues --    2.08020   2.11821   2.13220   2.13437   2.19657
  Beta virt. eigenvalues --    2.22024   2.26015   2.28926   2.37284   2.37596
  Beta virt. eigenvalues --    2.41456   2.48838   2.52292   2.53289   2.56742
  Beta virt. eigenvalues --    2.58849   2.63481   2.65947   2.67245   2.69141
  Beta virt. eigenvalues --    2.71657   2.72405   2.75608   2.81073   2.83639
  Beta virt. eigenvalues --    2.92005   2.94049   2.94726   2.97652   3.05389
  Beta virt. eigenvalues --    3.14995   3.15283   3.18210   3.23195   3.29223
  Beta virt. eigenvalues --    3.40218   3.55998   3.80252   3.84715   3.85984
  Beta virt. eigenvalues --    3.87778   3.95268   4.02812   4.17571   4.44983
  Beta virt. eigenvalues --    5.17905   5.25444   5.63217  23.85622  23.97316
  Beta virt. eigenvalues --   24.07231  24.26710  49.99631
          Condensed to atoms (all electrons):
               1          2          3          4          5          6
     1  C    6.984016   0.386430   0.281259  -0.686517   0.011711  -0.097334
     2  H    0.386430   0.483912  -0.016700  -0.026792   0.004513  -0.011713
     3  H    0.281259  -0.016700   0.496663   0.032561  -0.007641   0.032064
     4  C   -0.686517  -0.026792   0.032561   6.214244   0.334394  -0.098618
     5  H    0.011711   0.004513  -0.007641   0.334394   0.493618  -0.037712
     6  C   -0.097334  -0.011713   0.032064  -0.098618  -0.037712   5.911736
     7  H    0.017436   0.002526  -0.003014  -0.072977   0.007775   0.433761
     8  H   -0.010207  -0.000495   0.000568  -0.034308  -0.011942   0.431264
     9  C   -0.180011   0.012052   0.005827   0.133832  -0.000892  -0.026182
    10  H    0.010548  -0.001679   0.000355  -0.051731  -0.002510   0.001857
    11  H   -0.020642   0.001107   0.001044   0.017714  -0.000499  -0.038013
    12  H    0.008108  -0.003650  -0.002513   0.000900   0.003343  -0.040371
    13  O   -0.051291  -0.030770  -0.016535  -0.052315  -0.001817   0.056777
    14  H   -0.004562   0.002949  -0.001877   0.036889  -0.000541  -0.014231
               7          8          9         10         11         12
     1  C    0.017436  -0.010207  -0.180011   0.010548  -0.020642   0.008108
     2  H    0.002526  -0.000495   0.012052  -0.001679   0.001107  -0.003650
     3  H   -0.003014   0.000568   0.005827   0.000355   0.001044  -0.002513
     4  C   -0.072977  -0.034308   0.133832  -0.051731   0.017714   0.000900
     5  H    0.007775  -0.011942  -0.000892  -0.002510  -0.000499   0.003343
     6  C    0.433761   0.431264  -0.026182   0.001857  -0.038013  -0.040371
     7  H    0.543518  -0.066616  -0.021529  -0.013114  -0.001313   0.005026
     8  H   -0.066616   0.582539  -0.049929   0.009925  -0.005023  -0.013956
     9  C   -0.021529  -0.049929   5.418014   0.407741   0.398967   0.413824
    10  H   -0.013114   0.009925   0.407741   0.517076  -0.022766  -0.055605
    11  H   -0.001313  -0.005023   0.398967  -0.022766   0.537991  -0.027814
    12  H    0.005026  -0.013956   0.413824  -0.055605  -0.027814   0.562256
    13  O   -0.016172   0.004582  -0.014774   0.008591   0.003128  -0.004230
    14  H   -0.001151   0.000385   0.003426  -0.000678  -0.000051  -0.000100
              13         14
     1  C   -0.051291  -0.004562
     2  H   -0.030770   0.002949
     3  H   -0.016535  -0.001877
     4  C   -0.052315   0.036889
     5  H   -0.001817  -0.000541
     6  C    0.056777  -0.014231
     7  H   -0.016172  -0.001151
     8  H    0.004582   0.000385
     9  C   -0.014774   0.003426
    10  H    0.008591  -0.000678
    11  H    0.003128  -0.000051
    12  H   -0.004230  -0.000100
    13  O    8.137450   0.250754
    14  H    0.250754   0.511980
          Atomic-Atomic Spin Densities.
               1          2          3          4          5          6
     1  C   -0.102826   0.010816   0.022873   0.052631  -0.003120   0.068171
     2  H    0.010816   0.012866  -0.002445  -0.003321   0.000354   0.000976
     3  H    0.022873  -0.002445   0.004515  -0.010063  -0.000291  -0.002947
     4  C    0.052631  -0.003321  -0.010063   0.263663   0.004228   0.067000
     5  H   -0.003120   0.000354  -0.000291   0.004228  -0.014151  -0.000631
     6  C    0.068171   0.000976  -0.002947   0.067000  -0.000631  -0.162858
     7  H   -0.018002  -0.000208  -0.000632   0.019008  -0.000365  -0.021621
     8  H    0.015832   0.000287   0.000577  -0.049513  -0.000125   0.043280
     9  C   -0.035033  -0.002687  -0.001309  -0.000270  -0.000725   0.018690
    10  H    0.017481   0.000006   0.000435  -0.010740  -0.000019   0.008806
    11  H   -0.000699  -0.000110  -0.000154   0.008552   0.000182  -0.012431
    12  H   -0.005293   0.000228  -0.000134   0.007934  -0.000092  -0.005196
    13  O   -0.118293  -0.004738  -0.006017   0.009770   0.000643  -0.042897
    14  H    0.010129   0.000488   0.000015  -0.004930   0.000109   0.004483
               7          8          9         10         11         12
     1  C   -0.018002   0.015832  -0.035033   0.017481  -0.000699  -0.005293
     2  H   -0.000208   0.000287  -0.002687   0.000006  -0.000110   0.000228
     3  H   -0.000632   0.000577  -0.001309   0.000435  -0.000154  -0.000134
     4  C    0.019008  -0.049513  -0.000270  -0.010740   0.008552   0.007934
     5  H   -0.000365  -0.000125  -0.000725  -0.000019   0.000182  -0.000092
     6  C   -0.021621   0.043280   0.018690   0.008806  -0.012431  -0.005196
     7  H    0.029285  -0.011122   0.012523  -0.004849   0.000760   0.001101
     8  H   -0.011122   0.027805  -0.012609   0.003013  -0.000278  -0.001299
     9  C    0.012523  -0.012609   0.003010  -0.009243   0.006362   0.002116
    10  H   -0.004849   0.003013  -0.009243   0.006774  -0.000890  -0.001892
    11  H    0.000760  -0.000278   0.006362  -0.000890  -0.001506   0.000007
    12  H    0.001101  -0.001299   0.002116  -0.001892   0.000007   0.002846
    13  O    0.008339  -0.003200   0.025226  -0.008185  -0.000097   0.001522
    14  H   -0.001570   0.000580  -0.002787   0.000854  -0.000075  -0.000182
              13         14
     1  C   -0.118293   0.010129
     2  H   -0.004738   0.000488
     3  H   -0.006017   0.000015
     4  C    0.009770  -0.004930
     5  H    0.000643   0.000109
     6  C   -0.042897   0.004483
     7  H    0.008339  -0.001570
     8  H   -0.003200   0.000580
     9  C    0.025226  -0.002787
    10  H   -0.008185   0.000854
    11  H   -0.000097  -0.000075
    12  H    0.001522  -0.000182
    13  O    0.879173   0.008459
    14  H    0.008459  -0.031618
 Mulliken charges and spin densities:
               1          2
     1  C   -0.648943  -0.085335
     2  H    0.198310   0.012512
     3  H    0.197937   0.004422
     4  C    0.252723   0.353947
     5  H    0.208200  -0.014002
     6  C   -0.503285  -0.037178
     7  H    0.185844   0.012644
     8  H    0.163211   0.013228
     9  C   -0.500368   0.003264
    10  H    0.191990   0.001552
    11  H    0.156170  -0.000378
    12  H    0.154782   0.001665
    13  O   -0.273379   0.749704
    14  H    0.216808  -0.016045
 Sum of Mulliken charges =   0.00000   1.00000
 Mulliken charges and spin densities with hydrogens summed into heavy atoms:
               1          2
     1  C   -0.252696  -0.068402
     4  C    0.460923   0.339945
     6  C   -0.154230  -0.011306
     9  C    0.002573   0.006103
    13  O   -0.056571   0.733660
 APT charges:
               1
     1  C   -0.780346
     2  H    0.358936
     3  H    0.335098
     4  C    0.025752
     5  H    0.425240
     6  C   -1.152171
     7  H    0.522015
     8  H    0.504923
     9  C   -1.212238
    10  H    0.215821
    11  H    0.710803
    12  H    0.235596
    13  O   -0.635979
    14  H    0.446550
 Sum of APT charges =   0.00000
 APT charges with hydrogens summed into heavy atoms:
               1
     1  C   -0.086312
     4  C    0.450992
     6  C   -0.125234
     9  C   -0.050018
    13  O   -0.189429
 Electronic spatial extent (au):  <R**2>=            803.1611
 Charge=              0.0000 electrons
 Dipole moment (field-independent basis, Debye):
    X=             -0.6185    Y=             -1.3730    Z=             -1.6520  Tot=              2.2353
 Quadrupole moment (field-independent basis, Debye-Ang):
   XX=            -30.4999   YY=            -36.8938   ZZ=            -30.6612
   XY=              0.4835   XZ=              0.7342   YZ=             -3.6667
 Traceless Quadrupole moment (field-independent basis, Debye-Ang):
   XX=              2.1850   YY=             -4.2088   ZZ=              2.0238
   XY=              0.4835   XZ=              0.7342   YZ=             -3.6667
 Octapole moment (field-independent basis, Debye-Ang**2):
  XXX=            127.2020  YYY=            -34.5742  ZZZ=            -18.9662  XYY=             45.2179
  XXY=            -12.1122  XXZ=             -6.4993  XZZ=             43.9795  YZZ=             -8.1517
  YYZ=            -14.1574  XYZ=              0.8229
 Hexadecapole moment (field-independent basis, Debye-Ang**3):
 XXXX=           -648.8549 YYYY=           -233.1686 ZZZZ=           -176.8773 XXXY=             -5.9245
 XXXZ=             56.2812 YYYX=             -4.8884 YYYZ=            -25.8036 ZZZX=             63.1759
 ZZZY=             -5.9703 XXYY=           -153.8592 XXZZ=           -142.0178 YYZZ=            -62.4525
 XXYZ=             -1.5051 YYXZ=             23.4612 ZZXY=             -3.2631
 N-N= 1.764049737093D+02 E-N=-8.959779775598D+02  KE= 2.319924922376D+02
  Exact polarizability:   0.000   0.000   0.000   0.000   0.000   0.000
 Approx polarizability:  69.214   6.099  76.067   6.799   5.430  62.984
                          Isotropic Fermi Contact Couplings
        Atom                 a.u.       MegaHertz       Gauss      10(-4) cm-1
     1  C(13)              0.02028      22.79771       8.13479       7.60450
     2  H(1)               0.00379      16.95956       6.05159       5.65710
     3  H(1)               0.00085       3.80282       1.35694       1.26848
     4  C(13)              0.04573      51.40843      18.34381      17.14801
     5  H(1)              -0.00510     -22.78016      -8.12853      -7.59864
     6  C(13)             -0.01037     -11.65842      -4.16001      -3.88883
     7  H(1)               0.00640      28.59824      10.20456       9.53935
     8  H(1)               0.00697      31.16144      11.11917      10.39434
     9  C(13)             -0.00035      -0.39057      -0.13937      -0.13028
    10  H(1)               0.00005       0.21897       0.07813       0.07304
    11  H(1)              -0.00018      -0.78727      -0.28092      -0.26261
    12  H(1)               0.00003       0.11217       0.04002       0.03742
    13  O(17)              0.14993     -90.88653     -32.43057     -30.31648
    14  H(1)              -0.01305     -58.32270     -20.81099     -19.45436
 --------------------------------------------------------
       Center         ----  Spin Dipole Couplings  ----
                      3XX-RR        3YY-RR        3ZZ-RR
 --------------------------------------------------------
     1   Atom        0.009598     -0.007987     -0.001611
     2   Atom       -0.005997      0.005854      0.000143
     3   Atom        0.006322      0.002402     -0.008724
     4   Atom       -0.182731      0.361796     -0.179065
     5   Atom       -0.025498     -0.001268      0.026766
     6   Atom       -0.000650      0.008331     -0.007681
     7   Atom        0.008021     -0.003259     -0.004762
     8   Atom        0.004453     -0.000363     -0.004090
     9   Atom        0.001080     -0.001981      0.000901
    10   Atom        0.000823     -0.002902      0.002079
    11   Atom        0.001204     -0.001133     -0.000071
    12   Atom       -0.001865     -0.000145      0.002009
    13   Atom       -1.491997      2.813995     -1.321997
    14   Atom       -0.107028     -0.025770      0.132797
 --------------------------------------------------------
                        XY            XZ            YZ
 --------------------------------------------------------
     1   Atom       -0.015686      0.010458      0.006435
     2   Atom       -0.002107      0.007774     -0.010742
     3   Atom       -0.007753      0.001154      0.004920
     4   Atom       -0.006427      0.002318     -0.016074
     5   Atom        0.000364     -0.000039      0.007079
     6   Atom        0.003202     -0.001669      0.000360
     7   Atom        0.000740      0.001483      0.000657
     8   Atom        0.005284     -0.000637      0.000655
     9   Atom        0.002883     -0.004485     -0.001553
    10   Atom        0.003970     -0.007547     -0.002444
    11   Atom        0.001416     -0.002522     -0.000616
    12   Atom        0.002062     -0.002672     -0.002421
    13   Atom        0.184015      0.044772      0.934607
    14   Atom        0.003981      0.001725     -0.048218
 --------------------------------------------------------


 ---------------------------------------------------------------------------------
              Anisotropic Spin Dipole Couplings in Principal Axis System
 ---------------------------------------------------------------------------------

       Atom             a.u.   MegaHertz   Gauss  10(-4) cm-1        Axes

              Baa    -0.0229    -3.074    -1.097    -1.025  0.5016  0.7285 -0.4665
     1 C(13)  Bbb     0.0024     0.318     0.113     0.106 -0.0193  0.5485  0.8359
              Bcc     0.0205     2.756     0.983     0.919  0.8649 -0.4104  0.2892
 
              Baa    -0.0127    -6.782    -2.420    -2.262  0.6764 -0.3099 -0.6681
     2 H(1)   Bbb    -0.0034    -1.789    -0.638    -0.597  0.6768  0.6193  0.3980
              Bcc     0.0161     8.570     3.058     2.859 -0.2904  0.7214 -0.6286
 
              Baa    -0.0116    -6.172    -2.202    -2.059 -0.2468 -0.4409  0.8630
     3 H(1)   Bbb    -0.0010    -0.541    -0.193    -0.181  0.5935  0.6352  0.4942
              Bcc     0.0126     6.713     2.395     2.239  0.7660 -0.6342 -0.1049
 
              Baa    -0.1839   -24.672    -8.803    -8.230  0.8969 -0.0025 -0.4422
     4 C(13)  Bbb    -0.1785   -23.952    -8.547    -7.990  0.4421  0.0319  0.8964
              Bcc     0.3624    48.624    17.350    16.219 -0.0119  0.9995 -0.0297
 
              Baa    -0.0255   -13.608    -4.856    -4.539  0.9999 -0.0158  0.0029
     5 H(1)   Bbb    -0.0029    -1.573    -0.561    -0.525  0.0161  0.9727 -0.2317
              Bcc     0.0285    15.181     5.417     5.064  0.0009  0.2317  0.9728
 
              Baa    -0.0081    -1.091    -0.389    -0.364  0.2452 -0.0689  0.9670
     6 C(13)  Bbb    -0.0012    -0.165    -0.059    -0.055  0.9198 -0.2986 -0.2545
              Bcc     0.0094     1.256     0.448     0.419  0.3062  0.9519 -0.0099
 
              Baa    -0.0051    -2.727    -0.973    -0.910 -0.0903 -0.3009  0.9494
     7 H(1)   Bbb    -0.0031    -1.673    -0.597    -0.558 -0.1018  0.9511  0.2917
              Bcc     0.0082     4.400     1.570     1.468  0.9907  0.0703  0.1165
 
              Baa    -0.0048    -2.581    -0.921    -0.861  0.3553 -0.5321  0.7686
     8 H(1)   Bbb    -0.0030    -1.610    -0.574    -0.537 -0.4068  0.6522  0.6396
              Bcc     0.0079     4.191     1.495     1.398  0.8416  0.5399 -0.0153
 
              Baa    -0.0042    -0.562    -0.201    -0.188  0.6838 -0.5965  0.4203
     9 C(13)  Bbb    -0.0024    -0.328    -0.117    -0.109  0.2331  0.7243  0.6488
              Bcc     0.0066     0.890     0.318     0.297  0.6915  0.3457 -0.6343
 
              Baa    -0.0067    -3.600    -1.285    -1.201  0.7394 -0.4387  0.5108
    10 H(1)   Bbb    -0.0038    -2.020    -0.721    -0.674  0.1359  0.8402  0.5250
              Bcc     0.0105     5.620     2.005     1.875 -0.6595 -0.3187  0.6808
 
              Baa    -0.0022    -1.198    -0.428    -0.400  0.6379 -0.4770  0.6047
    11 H(1)   Bbb    -0.0014    -0.744    -0.265    -0.248  0.0901  0.8260  0.5565
              Bcc     0.0036     1.942     0.693     0.648  0.7649  0.3005 -0.5698
 
              Baa    -0.0035    -1.869    -0.667    -0.624  0.8948 -0.3463  0.2817
    12 H(1)   Bbb    -0.0017    -0.899    -0.321    -0.300  0.1163  0.7901  0.6018
              Bcc     0.0052     2.769     0.988     0.924 -0.4310 -0.5058  0.7473
 
              Baa    -1.5244   110.305    39.360    36.794 -0.2001 -0.1982  0.9595
    13 O(17)  Bbb    -1.4989   108.460    38.701    36.178  0.9789 -0.0823  0.1871
              Bcc     3.0233  -218.765   -78.061   -72.972  0.0419  0.9767  0.2105
 
              Baa    -0.1073   -57.251   -20.428   -19.097  0.9980 -0.0601 -0.0192
    14 H(1)   Bbb    -0.0390   -20.813    -7.427    -6.943  0.0631  0.9610  0.2691
              Bcc     0.1463    78.064    27.855    26.039  0.0023 -0.2698  0.9629
 

 ---------------------------------------------------------------------------------

 Entering OneElI...
 Calculate overlap and kinetic energy integrals
    NBasis = 178  MinDer = 2  MaxDer = 2
 Requested accuracy = 0.1000D-12
 PrsmSu:  NPrtUS=  12 ThrOK=T IAlg=1 NPAlg=1 LenDen=           0.
 Prism:   IPart=     0 DynPar=F LinDyn=F Incr=           2.
 PRISM was handed   268355879 working-precision words and  2850 shell-pairs
 PRISM was handed   268355879 working-precision words and  2850 shell-pairs
 PRISM was handed   268355879 working-precision words and  2850 shell-pairs
 PRISM was handed   268355879 working-precision words and  2850 shell-pairs
 PRISM was handed   268355879 working-precision words and  2850 shell-pairs
 PRISM was handed   268355879 working-precision words and  2850 shell-pairs
 PRISM was handed   268355879 working-precision words and  2850 shell-pairs
 PRISM was handed   268355879 working-precision words and  2850 shell-pairs
 PRISM was handed   268355879 working-precision words and  2850 shell-pairs
 PRISM was handed   268355879 working-precision words and  2850 shell-pairs
 PRISM was handed   268355879 working-precision words and  2850 shell-pairs
 PRISM was handed   268355879 working-precision words and  2850 shell-pairs
 IPart=  9 NShTot=         221 NBatch=          25 AvBLen=         8.8
 IPart=  6 NShTot=         234 NBatch=          28 AvBLen=         8.4
 IPart=  3 NShTot=         245 NBatch=          37 AvBLen=         6.6
 IPart=  0 NShTot=         262 NBatch=          45 AvBLen=         5.8
 IPart= 11 NShTot=         218 NBatch=          24 AvBLen=         9.1
 IPart=  7 NShTot=         233 NBatch=          28 AvBLen=         8.3
 IPart=  1 NShTot=         257 NBatch=          42 AvBLen=         6.1
 IPart=  2 NShTot=         251 NBatch=          37 AvBLen=         6.8
 IPart=  8 NShTot=         231 NBatch=          28 AvBLen=         8.3
 IPart= 10 NShTot=         220 NBatch=          24 AvBLen=         9.2
 IPart=  5 NShTot=         236 NBatch=          30 AvBLen=         7.9
 IPart=  4 NShTot=         242 NBatch=          34 AvBLen=         7.1
 PrSmSu:  NxtVal=             25.
 Entering OneElI...
 Calculate potential energy integrals
    NBasis = 178  MinDer = 2  MaxDer = 2
 Requested accuracy = 0.1000D-12
 PrsmSu:  NPrtUS=  12 ThrOK=T IAlg=1 NPAlg=1 LenDen=           0.
 Prism:   IPart=     0 DynPar=F LinDyn=F Incr=          32.
 PRISM was handed   268365199 working-precision words and  2778 shell-pairs
 PRISM was handed   268365199 working-precision words and  2778 shell-pairs
 PRISM was handed   268365199 working-precision words and  2778 shell-pairs
 PRISM was handed   268365199 working-precision words and  2778 shell-pairs
 PRISM was handed   268365199 working-precision words and  2778 shell-pairs
 PRISM was handed   268365199 working-precision words and  2778 shell-pairs
 PRISM was handed   268365199 working-precision words and  2778 shell-pairs
 PRISM was handed   268365199 working-precision words and  2778 shell-pairs
 PRISM was handed   268365199 working-precision words and  2778 shell-pairs
 PRISM was handed   268365199 working-precision words and  2778 shell-pairs
 PRISM was handed   268365199 working-precision words and  2778 shell-pairs
 PRISM was handed   268365199 working-precision words and  2778 shell-pairs
 IPart=  9 NShTot=        3052 NBatch=         218 AvBLen=        14.0
 IPart=  6 NShTot=        3192 NBatch=         228 AvBLen=        14.0
 IPart=  3 NShTot=        3346 NBatch=         239 AvBLen=        14.0
 IPart=  0 NShTot=        3542 NBatch=         253 AvBLen=        14.0
 IPart= 11 NShTot=        2996 NBatch=         214 AvBLen=        14.0
 IPart= 10 NShTot=        3052 NBatch=         218 AvBLen=        14.0
 IPart=  7 NShTot=        3164 NBatch=         226 AvBLen=        14.0
 IPart=  5 NShTot=        3234 NBatch=         231 AvBLen=        14.0
 IPart=  8 NShTot=        3108 NBatch=         222 AvBLen=        14.0
 IPart=  2 NShTot=        3430 NBatch=         245 AvBLen=        14.0
 IPart=  4 NShTot=        3304 NBatch=         236 AvBLen=        14.0
 IPart=  1 NShTot=        3472 NBatch=         248 AvBLen=        14.0
 PrSmSu:  NxtVal=            385.
 Polarizability after L701:
                1             2             3 
      1  0.000000D+00
      2  0.000000D+00  0.000000D+00
      3  0.000000D+00  0.000000D+00  0.000000D+00
 Dipole Derivatives after L701:
                 1             2             3             4             5 
      1  -0.928345D+00 -0.496230D+00 -0.223616D+00  0.205479D+00  0.563322D-02
      2  -0.630271D+00 -0.309774D+00 -0.201759D+00  0.575349D-02  0.183111D+00
      3  -0.852220D-01 -0.381238D-01 -0.110292D+01 -0.185362D-01  0.347652D-01
                 6             7             8             9            10 
      1   0.216394D-01  0.556167D+00  0.410344D-01 -0.205247D+00  0.339056D+00
      2  -0.202925D-01 -0.416945D-01  0.171832D+00  0.176853D-01  0.332890D+00
      3   0.688216D+00 -0.196356D+00 -0.246075D-01  0.277297D+00  0.404062D+00
                11            12            13            14            15 
      1   0.398856D+00 -0.112017D-01  0.170710D+00  0.451804D-01  0.463001D+00
      2   0.339495D+00  0.256301D+00  0.411103D-02  0.127663D+00  0.128866D+00
      3   0.120568D+00 -0.601296D+00 -0.555606D-01  0.681666D-01  0.977349D+00
                16            17            18            19            20 
      1  -0.173078D+01 -0.181128D+00 -0.169915D+01  0.858003D+00 -0.953728D+00
      2   0.478783D-01 -0.122552D+01 -0.210411D+00 -0.824183D-01  0.401437D+00
      3  -0.288203D+00 -0.738347D-01 -0.500213D+00  0.133242D+00 -0.189685D+00
                21            22            23            24            25 
      1   0.567555D+00  0.695209D+00  0.100444D+01  0.322352D+00 -0.118874D+01
      2  -0.893826D-01  0.183222D+00  0.590842D+00  0.120176D+00  0.115428D+00
      3   0.306604D+00  0.562129D-01  0.135086D+00  0.228718D+00  0.624027D-02
                26            27            28            29            30 
      1   0.247892D+00  0.182594D+01 -0.239640D+00 -0.741365D+00 -0.211830D+00
      2  -0.103368D+01  0.108644D+00  0.169589D+00  0.526492D+00  0.869915D-01
      3  -0.449089D-01 -0.141429D+01  0.318365D+00  0.576505D+00  0.360612D+00
                31            32            33            34            35 
      1   0.165249D+01  0.224731D-01 -0.468607D+00 -0.271139D+00  0.532577D+00
      2   0.318671D-01  0.121085D+00 -0.324180D-02 -0.205595D+00  0.458354D+00
      3  -0.703497D+00 -0.269491D-02  0.358830D+00  0.399848D+00 -0.525142D+00
                36            37            38            39            40 
      1  -0.395133D+00 -0.337066D+00  0.119547D+00 -0.145767D+00  0.218593D+00
      2  -0.180142D+00  0.549256D-01 -0.807945D+00  0.106635D+01  0.143146D-01
      3   0.519573D+00  0.300756D-01  0.636046D-01 -0.762927D+00 -0.670604D-03
                41            42 
      1  -0.451774D-01  0.160065D+00
      2   0.456608D+00 -0.107979D+01
      3  -0.996990D-01  0.664450D+00
 Hessian after L701:
                1             2             3             4             5 
      1  0.708202D+01
      2 -0.138822D+01  0.157324D+02
      3 -0.228904D+01 -0.910332D+00  0.101783D+02
      4 -0.392429D+01 -0.720243D-02  0.208690D+00  0.385494D+01
      5 -0.141545D-01 -0.382986D+01 -0.614256D-01  0.193269D-01  0.382497D+01
      6 -0.285922D-01  0.650590D-01 -0.120461D+01 -0.180000D+00  0.720429D-01
      7 -0.156998D+01  0.108990D+00 -0.972588D+00  0.182195D-01 -0.716635D-02
      8  0.599072D-02 -0.343348D+01 -0.224033D-01  0.213655D-02  0.533090D-01
      9 -0.900527D+00 -0.612819D-01 -0.305208D+01  0.929383D-01  0.622045D-02
     10 -0.146029D+01  0.111332D+01  0.331207D+01 -0.314855D-02  0.220937D-02
     11  0.124264D+01 -0.969954D+01  0.721967D+00 -0.171309D-01  0.801566D-01
     12  0.356277D+01  0.652394D+00 -0.497069D+01 -0.137346D+00 -0.687580D-02
     13 -0.746657D-01 -0.161296D-01 -0.761892D-01 -0.954720D-02  0.646884D-04
     14 -0.210653D-01 -0.535652D-02 -0.327422D-02  0.124668D-02 -0.450277D-02
     15 -0.171173D-01  0.379438D-02  0.152274D+00  0.238206D-01  0.592284D-02
     16  0.279153D+00  0.588123D-02 -0.211807D-01 -0.498253D-01  0.487083D-02
     17 -0.349196D-01  0.305509D-01 -0.628004D-01 -0.101766D-01 -0.478897D-02
     18 -0.218745D+00 -0.554174D-01 -0.130316D+00 -0.267617D-01 -0.249480D-02
     19  0.138644D-01 -0.412663D-01  0.155661D-02  0.829311D-02 -0.123372D-03
     20 -0.574940D-01  0.487310D-02 -0.130720D-01 -0.430457D-02 -0.393539D-02
     21  0.410396D-02 -0.695624D-02 -0.172578D-01  0.769938D-02 -0.932784D-03
     22  0.825021D-01  0.902185D-01  0.267920D-01  0.492677D-02  0.233567D-02
     23  0.117052D+00  0.339244D-01  0.230003D-01  0.443046D-02  0.113483D-03
     24  0.330771D-01  0.197395D-01 -0.287079D-01  0.382356D-02  0.176543D-02
     25  0.338330D+00 -0.273193D-01 -0.202201D+00  0.891652D-01  0.373355D-02
     26 -0.588861D-01 -0.910668D-01  0.302569D-01  0.228519D-02 -0.646664D-01
     27 -0.970128D-01  0.194568D-01 -0.808598D-01  0.704040D-02  0.211214D-02
     28 -0.945747D-02 -0.149375D-01 -0.560702D-01 -0.815112D-02  0.320570D-02
     29 -0.591793D-01 -0.285406D-01  0.504922D-01 -0.482116D-02 -0.114134D-02
     30 -0.766971D-01  0.249415D-01  0.223434D-01 -0.427745D-03 -0.387633D-03
     31  0.344046D-01 -0.730366D-02 -0.609345D-02  0.113571D-01  0.112735D-02
     32 -0.727145D-02  0.429350D-03  0.223574D-02  0.357136D-03 -0.383738D-02
     33 -0.833312D-02  0.304973D-02 -0.430121D-02 -0.296597D-02 -0.340011D-03
     34 -0.154357D-01 -0.798321D-02 -0.100497D-01 -0.519670D-02 -0.140640D-02
     35  0.141047D-01 -0.116017D-01 -0.167120D-01  0.315250D-02  0.155144D-02
     36 -0.291779D-01 -0.260714D-02  0.747664D-02 -0.133918D-02 -0.189381D-02
     37 -0.723585D+00  0.220424D+00  0.849157D-01  0.233496D-01 -0.115971D-01
     38  0.291443D+00  0.125327D+01  0.294333D+00  0.153276D-01 -0.635981D-01
     39  0.629880D-01  0.350210D+00 -0.856120D+00  0.122039D-02  0.114647D-01
     40 -0.525672D-01 -0.284655D-01 -0.610618D-03 -0.100881D-01 -0.242624D-02
     41 -0.300350D-01  0.440159D-01 -0.322649D-01 -0.462740D-02  0.162333D-01
     42  0.230388D-02 -0.102049D+00 -0.154125D-01  0.360815D-02 -0.251781D-01
                6             7             8             9            10 
      6  0.111368D+01
      7  0.626906D-01  0.126399D+01
      8 -0.106134D-01 -0.206546D-01  0.348853D+01
      9 -0.643583D-01  0.106024D+01  0.151010D-01  0.316546D+01
     10 -0.336600D-01 -0.413440D-01  0.296634D-01 -0.894904D-01  0.629055D+01
     11 -0.230713D-01  0.132109D-01  0.253812D-02  0.899635D-03 -0.103006D+01
     12  0.649550D-01 -0.228603D-01  0.137552D-01 -0.127284D-03 -0.858015D+00
     13  0.218569D-01 -0.263323D-01 -0.235032D-02 -0.271299D-01 -0.361907D+01
     14  0.818560D-02 -0.589307D-02  0.490228D-02 -0.365216D-02 -0.232680D-01
     15  0.751318D-01 -0.115187D-01  0.241207D-02 -0.811197D-02 -0.179398D+00
     16  0.144420D-01  0.190468D+00  0.132756D-01 -0.415657D-01 -0.935416D+00
     17 -0.111753D-01 -0.945613D-03 -0.531553D-01 -0.328158D-03 -0.242451D-01
     18  0.236354D-02 -0.436031D-01 -0.615213D-02 -0.535194D-01 -0.177132D+01
     19  0.161502D-01 -0.312834D-02  0.985229D-03 -0.344294D-02  0.486812D-01
     20 -0.103287D-01 -0.644625D-02  0.476896D-03  0.296093D-02 -0.477691D-01
     21  0.584236D-02  0.344769D-02  0.125995D-02  0.347187D-03  0.725370D-01
     22  0.122399D-01  0.605252D-02  0.369602D-02 -0.383792D-02 -0.528763D-01
     23  0.117870D-01  0.941303D-02  0.631799D-03 -0.351503D-02 -0.106559D-01
     24  0.422617D-02  0.300746D-02  0.191145D-04 -0.215170D-02  0.205878D-02
     25  0.701924D-01  0.517587D-01  0.795843D-02 -0.359067D-01  0.590115D-01
     26  0.242325D-02  0.404486D-02 -0.209740D-01 -0.176294D-02  0.561329D-01
     27 -0.525892D-01 -0.216441D-01 -0.160299D-02 -0.989768D-02 -0.224660D+00
     28  0.285317D-02 -0.167939D-02 -0.358770D-03 -0.542717D-04  0.260670D-01
     29 -0.117714D-01 -0.932784D-02 -0.213199D-02  0.552795D-02  0.940843D-02
     30 -0.724345D-02 -0.509159D-02 -0.341884D-03  0.168336D-02  0.217974D-01
     31  0.106807D-01  0.150335D-01  0.165304D-02 -0.775944D-02  0.956872D-01
     32  0.254021D-04  0.415282D-04 -0.181447D-02  0.000000D+00 -0.104490D-01
     33 -0.582142D-02 -0.713458D-02 -0.632902D-03  0.186743D-02 -0.123334D+00
     34  0.324185D-02 -0.431519D-02 -0.662681D-03  0.309017D-02 -0.249800D-01
     35  0.939442D-02  0.559598D-02  0.225077D-02 -0.361202D-02  0.235628D-01
     36 -0.974900D-02 -0.400753D-02 -0.134263D-02  0.303627D-02 -0.445839D-01
     37  0.245370D-01  0.987840D-01 -0.448509D-01 -0.450247D-01 -0.322102D+00
     38 -0.686403D-01 -0.847691D-01 -0.337840D-01  0.382644D-01 -0.212821D+00
     39  0.496469D-01 -0.544383D-01  0.999811D-02  0.219797D-01 -0.400518D-01
     40  0.336782D-02  0.247450D-02  0.351824D-02 -0.153187D-02 -0.607614D-01
     41 -0.333172D-01 -0.609305D-02 -0.729760D-02  0.517851D-02  0.124972D+00
     42  0.285303D-01  0.134985D-01  0.543702D-03 -0.412954D-02 -0.439437D-01
               11            12            13            14            15 
     11  0.177350D+02
     12 -0.823440D+00  0.103636D+02
     13 -0.152873D-01 -0.146482D+00  0.379085D+01
     14 -0.354668D+01  0.174858D+00  0.243880D-01  0.350711D+01
     15  0.113729D+00 -0.135905D+01  0.172595D+00 -0.230779D+00  0.910928D+00
     16 -0.990540D-01 -0.189061D+01 -0.135112D-01  0.104753D-01  0.325492D-01
     17 -0.516401D+01 -0.236346D-01  0.254886D-02  0.440192D-01  0.161837D-01
     18 -0.165589D-01 -0.412273D+01  0.594916D-01  0.586866D-02  0.116637D+00
     19  0.138291D-02  0.660051D-01 -0.318954D-02 -0.444096D-02 -0.157890D-01
     20  0.132008D+00 -0.342102D-01 -0.526168D-02 -0.567574D-02  0.143665D-01
     21 -0.433541D-01  0.954023D-01  0.296469D-02 -0.153632D-02 -0.128218D-01
     22 -0.242175D-01 -0.104431D-01 -0.114962D-01 -0.947002D-02  0.134947D-01
     23  0.129387D+00 -0.785575D-02 -0.118328D-01  0.879545D-02 -0.249664D-03
     24  0.140651D-01  0.796846D-01  0.157096D-01  0.675812D-02  0.653167D-03
     25  0.408337D-01 -0.290545D+00 -0.100681D-01 -0.255334D-02 -0.472951D-01
     26 -0.961772D-01 -0.587708D-02 -0.721496D-03 -0.212187D-01  0.516360D-02
     27 -0.174548D-01  0.833046D-01 -0.351966D-01  0.578271D-02  0.700996D-01
     28  0.211074D-01  0.318229D-01 -0.132224D-03  0.912816D-03  0.443815D-02
     29  0.407977D-01  0.941064D-02 -0.484730D-03  0.152757D-02  0.867351D-02
     30 -0.201646D-01  0.533311D-02  0.111022D-03  0.171679D-03  0.345060D-02
     31 -0.180271D-01 -0.142666D+00  0.377572D-03 -0.388270D-03 -0.845873D-02
     32 -0.497982D-01  0.110814D-01  0.314374D-03 -0.260557D-03  0.504412D-04
     33  0.160896D-01  0.559404D-01  0.234484D-02  0.344989D-03  0.203101D-02
     34  0.815422D-02 -0.187366D-01 -0.447143D-02  0.637404D-03 -0.276943D-03
     35 -0.181749D-01 -0.526515D-01  0.161278D-02 -0.463316D-02 -0.115919D-01
     36 -0.294441D-01  0.287866D-01 -0.513394D-02 -0.245314D-02  0.207849D-01
     37 -0.225523D+00 -0.138361D+00 -0.161270D-01  0.266097D-01  0.301630D-01
     38  0.329477D+00  0.120234D+00  0.205976D-01  0.148352D-01  0.602066D-01
     39  0.211277D+00 -0.230654D+00  0.157280D-01  0.450304D-01  0.425105D-01
     40  0.101971D+00 -0.452782D-02 -0.261736D-02  0.280905D-02  0.279322D-02
     41  0.125065D+00 -0.271886D-01  0.254149D-02  0.713713D-02  0.121180D-01
     42 -0.104539D+00 -0.937859D-01 -0.669874D-03 -0.530533D-02 -0.145180D-01
               16            17            18            19            20 
     16  0.110835D+02
     17 -0.251612D+00  0.138071D+02
     18  0.123658D+01 -0.297663D+00  0.114992D+02
     19 -0.296879D+01 -0.101065D+01  0.643557D+00  0.264918D+01
     20 -0.894377D+00 -0.257240D+01 -0.742136D+00  0.108915D+01  0.248116D+01
     21  0.609730D+00 -0.792006D+00 -0.323576D+01 -0.757446D+00  0.863354D+00
     22 -0.311192D+01  0.921219D+00  0.334407D+00  0.132739D+00  0.198187D-01
     23  0.878997D+00 -0.195965D+01  0.577968D+00  0.214877D-01 -0.102584D+00
     24  0.313558D+00  0.570196D+00 -0.340291D+01  0.526346D-02  0.297733D-01
     25 -0.464226D+01 -0.366564D-01 -0.291708D+00  0.615736D-01 -0.423228D-01
     26 -0.314680D-01 -0.454685D+01  0.469479D+00 -0.324765D-01  0.743673D-01
     27 -0.285448D+00  0.526594D+00 -0.327833D+00  0.225419D-01 -0.389483D-01
     28  0.244639D-01  0.229580D-01  0.282775D-02  0.132745D-01 -0.678394D-02
     29 -0.954961D-02  0.725730D-01  0.781413D-02  0.249998D-02  0.119665D-01
     30 -0.539078D-01 -0.392178D-01 -0.346885D-01 -0.246639D-01 -0.107905D-01
     31  0.922997D-01  0.154731D-01  0.150559D-01 -0.337356D-02  0.820903D-02
     32  0.104463D-01  0.393544D-01 -0.124178D-01 -0.273351D-02  0.237200D-02
     33  0.380903D-01 -0.182794D-01 -0.128967D-01  0.101269D-01 -0.617186D-03
     34  0.631033D-01 -0.252510D-01  0.655221D-02 -0.135184D-02 -0.199301D-01
     35 -0.506039D-02  0.103028D+00 -0.117640D-01 -0.225643D-01  0.128844D-01
     36 -0.521504D-01  0.554026D-02 -0.220573D-01  0.370906D-01 -0.452983D-01
     37 -0.346883D-02  0.445904D+00  0.510848D-01  0.471438D-01 -0.329496D-01
     38  0.392698D+00  0.220767D+00  0.840593D-01 -0.817652D-02 -0.327488D-01
     39  0.981711D-01  0.134736D+00 -0.299104D+00  0.791869D-02 -0.198044D-01
     40 -0.783166D-02 -0.136431D-01  0.258539D-02  0.508400D-02  0.464527D-03
     41 -0.255231D-01 -0.165594D-01 -0.585826D-03  0.693293D-02 -0.276664D-02
     42  0.174559D-02 -0.814584D-02  0.236279D-01 -0.886869D-02  0.475056D-02
               21            22            23            24            25 
     21  0.310102D+01
     22  0.563399D-02  0.286191D+01
     23  0.246485D-01 -0.110089D+01  0.165819D+01
     24  0.122841D+00 -0.385222D+00 -0.673526D+00  0.330154D+01
     25  0.228645D-01  0.760315D-01  0.279593D-01 -0.765410D-02  0.117069D+02
     26 -0.265673D-02  0.259799D-01  0.121863D+00 -0.233403D-01 -0.195618D+00
     27 -0.551963D-01 -0.116456D-01 -0.101778D-01 -0.325739D-01  0.636201D+00
     28 -0.142225D-01 -0.110613D-01  0.256253D-01  0.229704D-01 -0.327851D+01
     29 -0.179035D-02  0.300302D-01  0.442915D-01  0.568608D-01  0.926267D+00
     30 -0.318551D-01  0.293533D-01  0.600484D-01  0.251790D-01  0.391645D+00
     31 -0.259971D-02  0.181883D-02 -0.706414D-02  0.135791D-03 -0.144431D+01
     32  0.552445D-02  0.353700D-02  0.199795D-02 -0.951054D-02 -0.192270D-02
     33 -0.171045D-01  0.653604D-02 -0.606292D-02 -0.117106D-01 -0.731684D+00
     34  0.293818D-01  0.146951D-01  0.134048D-02 -0.180673D-01 -0.301492D+01
     35 -0.433774D-01 -0.603242D-02  0.155998D-01 -0.787505D-02 -0.843130D+00
     36  0.452867D-01 -0.241670D-01 -0.651508D-02 -0.380407D-01  0.657099D+00
     37  0.146658D-01  0.569435D-02  0.403786D-01  0.109943D-01  0.240814D-02
     38 -0.387518D-02  0.391034D-01  0.420294D-01  0.144040D-01  0.115065D+00
     39  0.422253D-02  0.121464D-01  0.190356D-01 -0.152292D-01 -0.134429D+00
     40  0.123917D-02  0.982546D-03  0.375450D-02  0.344867D-03  0.483945D-02
     41  0.169757D-02  0.466722D-02  0.540952D-02  0.671229D-03  0.277065D-01
     42 -0.497032D-02 -0.528752D-02 -0.858557D-02 -0.279661D-02 -0.365793D-01
               26            27            28            29            30 
     26  0.122121D+02
     27 -0.143402D+00  0.996763D+01
     28  0.793112D+00  0.266786D+00  0.313677D+01
     29 -0.184685D+01  0.566858D+00 -0.863077D+00  0.185372D+01
     30  0.732457D+00 -0.346547D+01 -0.213172D+00 -0.727796D+00  0.332536D+01
     31 -0.222152D-01 -0.695331D+00 -0.185092D-01 -0.303746D-01 -0.337412D-03
     32 -0.335092D+01 -0.209327D-03 -0.708204D-01  0.253209D-01  0.102321D-01
     33  0.856097D-02 -0.308560D+01 -0.767707D-02  0.484811D-02  0.496218D-01
     34 -0.741323D+00  0.531542D+00  0.117739D+00 -0.119935D-01  0.962880D-02
     35 -0.234215D+01 -0.837182D+00  0.384308D-01 -0.130262D+00  0.235552D-01
     36 -0.900966D+00 -0.290657D+01  0.239066D-02  0.376994D-01  0.115210D+00
     37  0.177949D+00 -0.733598D-01  0.112884D-01  0.233693D-01 -0.779416D-01
     38 -0.341059D-01 -0.506468D-01  0.532826D-01 -0.367358D-01 -0.522975D-01
     39 -0.130605D+00 -0.110757D+00 -0.472220D-01 -0.155031D-01 -0.130018D-01
     40  0.232053D-01 -0.198132D-01 -0.210875D-02 -0.276659D-02 -0.296816D-03
     41  0.666737D-02 -0.211791D-01 -0.265655D-02 -0.453461D-02 -0.409908D-03
     42 -0.397311D-01  0.630197D-02  0.432826D-02  0.867597D-02  0.407691D-02
               31            32            33            34            35 
     31  0.121633D+01
     32 -0.113048D-01  0.330591D+01
     33  0.870269D+00  0.783550D-02  0.297600D+01
     34 -0.351632D-01  0.673011D-01 -0.245194D-01  0.291746D+01
     35  0.384233D-01  0.333787D-01 -0.456757D-03  0.727574D+00  0.231795D+01
     36 -0.878096D-02 -0.446510D-02  0.587262D-01 -0.509486D+00  0.974701D+00
     37  0.326505D-01  0.221371D-01 -0.207816D-01 -0.615237D-02  0.226417D-01
     38  0.288556D-01 -0.185970D-02 -0.130110D-01  0.339675D-02  0.163421D-01
     39 -0.157335D-01 -0.894924D-02 -0.982005D-02 -0.372030D-02 -0.139247D-01
     40  0.139118D-02  0.367405D-03 -0.936129D-03 -0.101237D-02  0.168817D-02
     41  0.293640D-02 -0.271000D-03 -0.132875D-02  0.146032D-03  0.384028D-02
     42 -0.838066D-02 -0.143234D-02  0.306164D-02  0.141917D-02 -0.850290D-02
               36            37            38            39            40 
     36  0.269556D+01
     37 -0.161700D-01  0.606028D+01
     38 -0.187559D-01 -0.645829D+00  0.316534D+01
     39 -0.431986D-02  0.761928D-01  0.221698D+00  0.268595D+01
     40 -0.158390D-02 -0.521016D+01 -0.817318D-02  0.212294D-01  0.533238D+01
     41 -0.419992D-02 -0.186635D-01 -0.483923D+01 -0.814663D+00 -0.823038D-01
     42  0.586826D-02  0.790857D-01 -0.625972D+00 -0.126530D+01 -0.225954D-02
               41            42 
     41  0.466229D+01
     42  0.915472D+00  0.132945D+01
 ICntrl=    100127.
 Calling FoFJK, ICntrl=    100127 FMM=F ISym2X=0 I1Cent= 0 IOpClX= 1 NMat=1 NMatS=1 NMatT=0.
 FoFJK:  IHMeth= 1 ICntrl=  100127 DoSepK=F KAlg= 0 I1Cent=   0 FoldK=F
 IRaf=         0 NMat=   1 IRICut=       1 DoRegI=T DoRafI=F ISym2E= 0.
 FoFCou: FMM=F IPFlag=           0 FMFlag=      100000 FMFlg1=         800
         NFxFlg=           0 DoJE=F BraDBF=F KetDBF=F FulRan=T
         wScrn=  0.000000 ICntrl=  100127 IOpCl=  1 I1Cent=           0 NGrid=           0
         NMat0=    1 NMatS0=      1 NMatT0=    0 NMatD0=    1 NMtDS0=    0 NMtDT0=    0
 Symmetry not used in FoFCou.
 FoFCou:  KetSym=F NOpSet=  1 NOpAb=1 NOp=  1.
 FoFCou:  CnvScl= 1.00D+00 Thresh= 1.00D-10 IAcrcy=      10.
 PrismS was handed  3220977335 working-precision words and  2840 shell-pairs
 FoFCou: LinMIO=F DoNuc=F BraDBF=F KetDBF=F HaveP=T PDBF=F HaveZ=T HaveW=F
         NIJTC =      10 NIJTAt=       0 NIJTCD=       0 NIJTT =      10
         IJTBeg=       1 IJTEnd=      10 KLTBeg=       1 KLTEnd=      10
         IPTBeg=       1 IPTEnd=      10 IPTBCv=       1 IPTECv=      10
         IZTBeg=       1 IZTEnd=      10 IZTBCv=       1 IZTECv=      10
         IWTBeg=      11 IWTEnd=      10 IWTBCv=      11 IWTECv=      10
         INTBeg=       1 INTEnd=       0 IFTBCv=       1 IFTECv=      10
 NCel replicated for PrismC:     1
 CoulSu:  IncDef=  1024 NBBP=        4034220 NTPThr=   100 NPartT=   12 Incr=        1024 LDynOK=F.
 CoulSu:  NPrtUS=  12 ThrOK=T IAlg=1 NPAlg=1 LenDen=           0 LWGrdD=           0 DoCopy=F.
 Enter PrismC: JobTyp=22 DoJE=F Cont=F.
 PrismC:  IPart=     0 DynPar=T LinDyn=F Incr=        1024 UseFst=F UseS4=T IGathr=2.
 PrismC was handed   268358521 working-precision words and  2840 shell-pairs
 Enter PrismC: JobTyp=22 DoJE=F Cont=F.
 PrismC was handed   268358521 working-precision words and  2840 shell-pairs
 Enter PrismC: JobTyp=22 DoJE=F Cont=F.
 PrismC was handed   268358521 working-precision words and  2840 shell-pairs
 Enter PrismC: JobTyp=22 DoJE=F Cont=F.
 PrismC was handed   268358521 working-precision words and  2840 shell-pairs
 Enter PrismC: JobTyp=22 DoJE=F Cont=F.
 Enter PrismC: JobTyp=22 DoJE=F Cont=F.
 PrismC was handed   268358521 working-precision words and  2840 shell-pairs
 PrismC was handed   268358521 working-precision words and  2840 shell-pairs
 Enter PrismC: JobTyp=22 DoJE=F Cont=F.
 PrismC was handed   268358521 working-precision words and  2840 shell-pairs
 Enter PrismC: JobTyp=22 DoJE=F Cont=F.
 Enter PrismC: JobTyp=22 DoJE=F Cont=F.
 PrismC was handed   268358521 working-precision words and  2840 shell-pairs
 PrismC was handed   268358521 working-precision words and  2840 shell-pairs
 Enter PrismC: JobTyp=22 DoJE=F Cont=F.
 PrismC was handed   268358521 working-precision words and  2840 shell-pairs
 Enter PrismC: JobTyp=22 DoJE=F Cont=F.
 PrismC was handed   268358521 working-precision words and  2840 shell-pairs
 Enter PrismC: JobTyp=22 DoJE=F Cont=F.
 PrismC was handed   268358521 working-precision words and  2840 shell-pairs
 IPart=  6 NShTot=      286589 NShNF=      286589 NShFF=           0 NBatch=        9994 AvBLen=        28.7
 IPart=  1 NShTot=      280109 NShNF=      280109 NShFF=           0 NBatch=        9833 AvBLen=        28.5
 IPart=  4 NShTot=      286700 NShNF=      286700 NShFF=           0 NBatch=       10201 AvBLen=        28.1
 IPart= 11 NShTot=      286825 NShNF=      286825 NShFF=           0 NBatch=        9859 AvBLen=        29.1
 IPart=  9 NShTot=      290304 NShNF=      290304 NShFF=           0 NBatch=       10267 AvBLen=        28.3
 IPart=  2 NShTot=      273491 NShNF=      273491 NShFF=           0 NBatch=        9944 AvBLen=        27.5
 IPart=  8 NShTot=      280429 NShNF=      280429 NShFF=           0 NBatch=        9938 AvBLen=        28.2
 IPart= 10 NShTot=      288343 NShNF=      288343 NShFF=           0 NBatch=       10290 AvBLen=        28.0
 IPart=  5 NShTot=      283776 NShNF=      283776 NShFF=           0 NBatch=       10152 AvBLen=        28.0
 IPart=  7 NShTot=      282152 NShNF=      282152 NShFF=           0 NBatch=       10067 AvBLen=        28.0
 IPart=  3 NShTot=      299237 NShNF=      299237 NShFF=           0 NBatch=       10593 AvBLen=        28.2
 IPart=  0 NShTot=      290676 NShNF=      290676 NShFF=           0 NBatch=       10144 AvBLen=        28.7
 CoulSu:  NxtVal=        4362241.
 ReadGW:  IGet=0 IStart=           1 Next=           1 LGW=           0.
 Remaining memory in FofDFT     3071.94 Mw
 CkSvGd:  ISavGI=        -1 IRadAn=       4 IRASav=       0 ISavGd=        -1.
 CalDSu:  NPrtUS=  12 ThrOK=T IAlg=1 NPAlg=2 DoDPD=T LenP=       15931 LenD1P=             0.
 IPart=  0 IRanGd=          0 ScrnBf=T ScrnGd=T RCrit=4.00D+00 DoMicB=T.
 IPart=  3         9554 of        11670 points in      28 batches and       68 microbatches, Max-NSigAt=      14 Max-NSgAt2=      14
 IPart=  6         9259 of        10828 points in      22 batches and       55 microbatches, Max-NSigAt=      14 Max-NSgAt2=      14
 IPart=  1         7734 of         9034 points in      19 batches and       61 microbatches, Max-NSigAt=      14 Max-NSgAt2=      14
 IPart=  9         8958 of        10042 points in      21 batches and       56 microbatches, Max-NSigAt=      14 Max-NSgAt2=      14
 IPart= 10         7479 of         8482 points in      17 batches and       61 microbatches, Max-NSigAt=      14 Max-NSgAt2=      14
 IPart=  5         7912 of         9338 points in      19 batches and       52 microbatches, Max-NSigAt=      14 Max-NSgAt2=      14
 IPart=  8         7932 of         9234 points in      20 batches and       71 microbatches, Max-NSigAt=      14 Max-NSgAt2=      14
 IPart=  0         8631 of         9420 points in      19 batches and       46 microbatches, Max-NSigAt=      14 Max-NSgAt2=      14
 IPart=  7         7813 of         9036 points in      19 batches and       60 microbatches, Max-NSigAt=      14 Max-NSgAt2=      14
 IPart=  4         8851 of        10198 points in      20 batches and       53 microbatches, Max-NSigAt=      14 Max-NSgAt2=      14
 IPart= 11         8210 of         9036 points in      17 batches and       47 microbatches, Max-NSigAt=      14 Max-NSgAt2=      14
 IPart=  2         8059 of         9322 points in      20 batches and       73 microbatches, Max-NSigAt=      14 Max-NSgAt2=      14
 Polarizability after L703:
                1             2             3 
      1  0.000000D+00
      2  0.000000D+00  0.000000D+00
      3  0.000000D+00  0.000000D+00  0.000000D+00
 Dipole Derivatives after L703:
                 1             2             3             4             5 
      1  -0.928345D+00 -0.496230D+00 -0.223616D+00  0.205479D+00  0.563322D-02
      2  -0.630271D+00 -0.309774D+00 -0.201759D+00  0.575349D-02  0.183111D+00
      3  -0.852220D-01 -0.381238D-01 -0.110292D+01 -0.185362D-01  0.347652D-01
                 6             7             8             9            10 
      1   0.216394D-01  0.556167D+00  0.410344D-01 -0.205247D+00  0.339056D+00
      2  -0.202925D-01 -0.416945D-01  0.171832D+00  0.176853D-01  0.332890D+00
      3   0.688216D+00 -0.196356D+00 -0.246075D-01  0.277297D+00  0.404062D+00
                11            12            13            14            15 
      1   0.398856D+00 -0.112017D-01  0.170710D+00  0.451804D-01  0.463001D+00
      2   0.339495D+00  0.256301D+00  0.411103D-02  0.127663D+00  0.128866D+00
      3   0.120568D+00 -0.601296D+00 -0.555606D-01  0.681666D-01  0.977349D+00
                16            17            18            19            20 
      1  -0.173078D+01 -0.181128D+00 -0.169915D+01  0.858003D+00 -0.953728D+00
      2   0.478783D-01 -0.122552D+01 -0.210411D+00 -0.824183D-01  0.401437D+00
      3  -0.288203D+00 -0.738347D-01 -0.500213D+00  0.133242D+00 -0.189685D+00
                21            22            23            24            25 
      1   0.567555D+00  0.695209D+00  0.100444D+01  0.322352D+00 -0.118874D+01
      2  -0.893826D-01  0.183222D+00  0.590842D+00  0.120176D+00  0.115428D+00
      3   0.306604D+00  0.562129D-01  0.135086D+00  0.228718D+00  0.624027D-02
                26            27            28            29            30 
      1   0.247892D+00  0.182594D+01 -0.239640D+00 -0.741365D+00 -0.211830D+00
      2  -0.103368D+01  0.108644D+00  0.169589D+00  0.526492D+00  0.869915D-01
      3  -0.449089D-01 -0.141429D+01  0.318365D+00  0.576505D+00  0.360612D+00
                31            32            33            34            35 
      1   0.165249D+01  0.224731D-01 -0.468607D+00 -0.271139D+00  0.532577D+00
      2   0.318671D-01  0.121085D+00 -0.324180D-02 -0.205595D+00  0.458354D+00
      3  -0.703497D+00 -0.269491D-02  0.358830D+00  0.399848D+00 -0.525142D+00
                36            37            38            39            40 
      1  -0.395133D+00 -0.337066D+00  0.119547D+00 -0.145767D+00  0.218593D+00
      2  -0.180142D+00  0.549256D-01 -0.807945D+00  0.106635D+01  0.143146D-01
      3   0.519573D+00  0.300756D-01  0.636046D-01 -0.762927D+00 -0.670604D-03
                41            42 
      1  -0.451774D-01  0.160065D+00
      2   0.456608D+00 -0.107979D+01
      3  -0.996990D-01  0.664450D+00
 Hessian after L703:
                1             2             3             4             5 
      1  0.755310D+00
      2  0.210871D-01  0.358322D-01
      3  0.563839D-01 -0.401591D-03  0.692009D+00
      4 -0.573278D-01 -0.176189D-02  0.533566D-02  0.536392D-01
      5  0.187415D-02 -0.256283D-01  0.223842D-02  0.140047D-02  0.303259D-01
      6  0.160100D-02  0.407407D-03 -0.345791D+00 -0.121577D-02  0.218556D-02
      7 -0.281810D+00 -0.296524D-03  0.115948D+00  0.323244D-02 -0.714522D-03
      8  0.162716D-02 -0.315645D-01  0.164789D-02 -0.690670D-03  0.270425D-02
      9  0.120713D+00 -0.618636D-03 -0.119346D+00  0.249125D-01 -0.168039D-03
     10 -0.373871D+00  0.224839D-02 -0.156260D+00  0.622379D-02 -0.453540D-02
     11 -0.462952D-01 -0.363964D-01 -0.257607D-01  0.721799D-04  0.293949D-02
     12 -0.172017D+00 -0.187985D-02 -0.219457D+00 -0.272480D-01 -0.909440D-02
     13  0.325379D-02 -0.186510D-02 -0.305978D-01 -0.386137D-02 -0.163666D-02
     14 -0.111747D-02  0.595982D-02 -0.557978D-02 -0.135607D-02  0.911446D-02
     15  0.252231D-02 -0.200287D-02 -0.153722D-01 -0.238010D-02 -0.111362D-02
     16 -0.294789D-01 -0.735895D-02  0.546129D-02  0.825322D-03  0.100509D-02
     17 -0.643647D-02  0.623677D-02 -0.659849D-03  0.303330D-03 -0.562016D-02
     18 -0.147519D-01 -0.178667D-02  0.135212D-01 -0.125682D-03  0.761550D-03
     19 -0.274437D-02 -0.721741D-03  0.328213D-02  0.151034D-03  0.118531D-02
     20 -0.557035D-03 -0.669060D-03 -0.410221D-03  0.270393D-05  0.142201D-03
     21  0.158243D-02  0.155436D-02 -0.216175D-03  0.224903D-03 -0.107367D-03
     22 -0.287264D-02  0.653584D-03  0.299573D-02  0.218237D-03 -0.109011D-02
     23  0.974987D-03  0.196193D-03  0.112110D-02  0.136594D-03 -0.514630D-04
     24  0.190752D-02  0.975420D-03  0.188619D-03  0.176724D-03 -0.703274D-04
     25 -0.176234D-02 -0.632281D-03  0.114807D-02 -0.125503D-02 -0.473817D-04
     26 -0.616364D-03 -0.166068D-02 -0.146121D-03  0.165606D-04  0.426316D-03
     27 -0.174084D-02 -0.104056D-02  0.725711D-03 -0.371482D-04  0.135706D-03
     28 -0.285907D-03  0.226903D-03  0.254127D-03 -0.731557D-03  0.899951D-03
     29 -0.670459D-03 -0.784436D-04 -0.788331D-03  0.563273D-03 -0.219596D-03
     30  0.129754D-02  0.691878D-03  0.657017D-03  0.484611D-03 -0.458048D-03
     31 -0.183595D-03 -0.230848D-03 -0.449257D-03  0.317999D-03  0.448957D-04
     32  0.111571D-03  0.444688D-03  0.628100D-04  0.103084D-04 -0.504646D-03
     33 -0.652819D-03  0.196464D-03 -0.282943D-03 -0.387045D-04  0.865659D-05
     34  0.864605D-04  0.266876D-03  0.231761D-03 -0.106330D-02 -0.790895D-03
     35  0.901203D-03  0.571937D-03  0.999682D-03 -0.512059D-03 -0.224385D-03
     36  0.278526D-03 -0.322803D-03  0.595176D-04  0.589498D-03  0.497642D-03
     37 -0.811047D-02 -0.107958D-01 -0.158749D-02 -0.270490D-04  0.188559D-02
     38  0.291308D-01  0.484952D-01  0.219503D-01  0.157525D-02 -0.117207D-01
     39  0.550788D-02  0.978052D-02 -0.603750D-02 -0.681178D-03  0.562517D-02
     40 -0.203170D-03 -0.819749D-03 -0.214622D-02 -0.341849D-03  0.519520D-03
     41 -0.140068D-04 -0.173943D-02  0.572636D-02  0.240021D-03 -0.168343D-02
     42 -0.263170D-02 -0.555306D-02 -0.656941D-03  0.271592D-05 -0.440907D-03
                6             7             8             9            10 
      6  0.365184D+00
      7 -0.217677D-02  0.297884D+00
      8 -0.560427D-03  0.215391D-02  0.277154D-01
      9 -0.736993D-02 -0.124163D+00  0.196838D-03  0.115701D+00
     10 -0.262051D-03 -0.195446D-01 -0.731417D-02 -0.186569D-01  0.681873D+00
     11 -0.729599D-03  0.177942D-03  0.296507D-02 -0.156033D-03  0.520887D-01
     12 -0.126590D-01  0.145318D-01  0.209649D-02  0.108903D-01  0.927224D-01
     13 -0.211424D-02  0.879759D-03  0.765576D-03  0.139603D-03 -0.579204D-01
     14 -0.203295D-03  0.325305D-03 -0.630224D-02  0.549633D-03  0.470323D-03
     15  0.285149D-03 -0.268317D-03  0.634124D-03  0.101494D-02  0.183931D-01
     16  0.153813D-02 -0.183393D-03 -0.869791D-03 -0.168208D-02 -0.201842D+00
     17 -0.186823D-04 -0.116345D-02  0.103189D-01 -0.136431D-02 -0.922042D-05
     18 -0.462617D-03 -0.331705D-02 -0.164663D-02 -0.215768D-02  0.585095D-01
     19 -0.109788D-04 -0.571780D-03 -0.207839D-02 -0.270307D-03 -0.230951D-01
     20 -0.387458D-04 -0.104500D-03 -0.269357D-03  0.625431D-04 -0.184997D-02
     21 -0.128479D-03  0.557740D-05  0.557857D-03  0.112051D-03  0.444502D-02
     22 -0.628894D-04 -0.882092D-03  0.184229D-02 -0.608558D-03 -0.183538D-01
     23 -0.326614D-05  0.313129D-04 -0.154885D-03  0.364359D-05 -0.103647D-02
     24 -0.129775D-03  0.101758D-03 -0.666979D-03  0.250741D-03  0.135443D-02
     25  0.125812D-02  0.455902D-03  0.269462D-04  0.471717D-03 -0.140420D-02
     26  0.155804D-03  0.676980D-05  0.450152D-05  0.651442D-04  0.918737D-03
     27  0.290360D-05 -0.545059D-03 -0.919328D-04 -0.345561D-03  0.797061D-02
     28  0.319415D-03  0.505580D-04 -0.404146D-04 -0.129548D-03  0.887757D-03
     29  0.885378D-04  0.708139D-04 -0.625675D-04  0.327365D-03 -0.127658D-03
     30  0.101735D-03  0.162292D-04 -0.532938D-05  0.130317D-03 -0.199936D-02
     31  0.320670D-03  0.326911D-04 -0.217899D-05  0.251029D-03  0.108878D-02
     32  0.467267D-04  0.274459D-05  0.808880D-04  0.274614D-04 -0.533792D-03
     33  0.496440D-03  0.986664D-04  0.000000D+00  0.294724D-03 -0.217983D-02
     34  0.636360D-03  0.664241D-04  0.961262D-04 -0.378516D-04  0.264741D-03
     35 -0.183881D-03 -0.883580D-04 -0.879535D-05 -0.368326D-03 -0.353617D-04
     36  0.500842D-04  0.492269D-04 -0.314384D-05  0.226212D-03 -0.110752D-02
     37 -0.920000D-04  0.848779D-03  0.351041D-02 -0.935029D-03  0.478119D-02
     38 -0.133008D-02 -0.587102D-03 -0.549126D-02  0.144956D-02 -0.396967D-01
     39  0.826927D-04 -0.255888D-03 -0.245753D-02  0.421573D-03 -0.686901D-02
     40  0.261002D-03 -0.459443D-03  0.973188D-03 -0.506943D-05  0.912856D-03
     41  0.183938D-03  0.185655D-03  0.645837D-04 -0.684701D-05 -0.587392D-03
     42  0.337734D-03 -0.258104D-04  0.297916D-03  0.178199D-03  0.393981D-02
               11            12            13            14            15 
     11  0.161316D+00
     12  0.521190D-01  0.675806D+00
     13 -0.718392D-03  0.220773D-01  0.598678D-01
     14 -0.416232D-01 -0.199950D-01  0.158669D-02  0.261055D-01
     15 -0.211731D-01 -0.327248D+00 -0.189675D-01  0.239858D-01  0.348183D+00
     16 -0.384951D-02  0.529488D-01  0.176948D-02  0.535814D-03 -0.188846D-02
     17 -0.704777D-01  0.123473D-02  0.243985D-02  0.304870D-02 -0.926880D-03
     18  0.906193D-03 -0.115749D+00  0.288679D-01  0.172909D-02 -0.816878D-02
     19  0.222536D-01 -0.142704D-01  0.900005D-03 -0.942501D-03  0.442894D-03
     20  0.220962D-02 -0.146839D-02  0.628308D-03  0.462260D-03 -0.272045D-03
     21 -0.100521D-01  0.608606D-02 -0.623825D-03 -0.107131D-04  0.250163D-03
     22 -0.280682D-01 -0.879883D-02  0.676188D-03  0.105470D-02  0.357704D-03
     23  0.658761D-03  0.256271D-03 -0.727013D-03  0.377159D-03  0.293975D-03
     24  0.103466D-01  0.325103D-02 -0.523239D-03 -0.368245D-03  0.607987D-04
     25  0.389471D-02  0.359849D-01 -0.584660D-02 -0.607083D-03  0.242921D-02
     26  0.607261D-03  0.101386D-02 -0.603821D-03  0.185925D-02  0.188488D-03
     27 -0.754789D-03 -0.147500D-01 -0.803697D-04 -0.266372D-03  0.127780D-02
     28  0.507306D-03  0.208755D-03  0.275792D-04 -0.124996D-03 -0.136482D-03
     29 -0.234522D-03  0.399242D-03  0.155764D-03  0.184046D-04  0.000000D+00
     30 -0.189820D-03  0.105729D-02 -0.176112D-03  0.365162D-03  0.851023D-04
     31 -0.644851D-04 -0.264530D-03 -0.135764D-04  0.000000D+00 -0.901788D-04
     32  0.288137D-03 -0.102530D-02  0.174813D-03  0.312014D-03 -0.113129D-03
     33 -0.111113D-02 -0.708688D-02  0.186628D-02  0.129516D-03 -0.738989D-03
     34 -0.491764D-03  0.949284D-04  0.493144D-04  0.182836D-03 -0.148563D-03
     35  0.719537D-05 -0.110725D-03 -0.244125D-03 -0.138305D-03  0.420360D-04
     36  0.255526D-04  0.134627D-02  0.120694D-04 -0.369778D-03  0.115360D-03
     37  0.128019D-02  0.333386D-02 -0.177742D-04  0.325687D-03 -0.137662D-03
     38 -0.199931D-01 -0.249878D-01  0.146537D-03  0.113809D-02  0.932108D-03
     39 -0.369123D-02 -0.435428D-02  0.755480D-04  0.364227D-03  0.574969D-03
     40 -0.787010D-03  0.695994D-03  0.235887D-03 -0.333270D-03 -0.127898D-03
     41 -0.226610D-02  0.144187D-02 -0.102422D-03 -0.331880D-03 -0.475769D-03
     42  0.221111D-03  0.286740D-02  0.444609D-04 -0.330265D-03 -0.320206D-03
               16            17            18            19            20 
     16  0.513513D+00
     17 -0.186713D-04  0.548433D+00
     18  0.212847D-01 -0.263274D-02  0.517934D+00
     19 -0.116394D+00  0.102140D+00 -0.619335D-01  0.131565D+00
     20  0.100293D+00 -0.177219D+00  0.821291D-01 -0.109714D+00  0.191997D+00
     21 -0.580094D-01  0.807705D-01 -0.962222D-01  0.642073D-01 -0.893931D-01
     22 -0.884372D-01 -0.962536D-01 -0.281722D-01  0.769535D-02  0.155478D-01
     23 -0.931481D-01 -0.235691D+00 -0.586670D-01 -0.101456D-01 -0.222472D-01
     24 -0.248164D-01 -0.568301D-01 -0.634165D-01  0.611881D-02  0.121136D-01
     25 -0.798285D-01  0.275831D-03  0.102549D-02  0.122428D-02 -0.339006D-02
     26  0.566881D-03 -0.812004D-01 -0.156559D-01 -0.243240D-02  0.372190D-02
     27  0.260746D-02 -0.150281D-01 -0.207442D+00  0.144405D-02 -0.218874D-02
     28 -0.624208D-04  0.207472D-02 -0.368234D-03 -0.272803D-03 -0.348303D-03
     29 -0.482363D-03 -0.227952D-02 -0.158385D-02  0.236400D-03  0.515663D-03
     30 -0.138862D-01 -0.310397D-01 -0.104403D-01 -0.406499D-03  0.150927D-03
     31  0.117053D-02 -0.245349D-03 -0.166749D-02  0.405694D-03 -0.163084D-03
     32  0.425319D-02 -0.154674D-02 -0.115041D-02 -0.380762D-03  0.145036D-03
     33  0.333496D-01  0.575004D-03 -0.990289D-02 -0.421242D-05  0.680283D-03
     34  0.708461D-04 -0.233954D-02  0.309600D-03  0.660815D-03 -0.442834D-03
     35 -0.362633D-02  0.447769D-02 -0.282758D-02  0.259687D-04  0.113147D-02
     36 -0.165375D-01  0.257907D-01 -0.165593D-01  0.906198D-03 -0.144257D-02
     37 -0.833012D-03 -0.558473D-03  0.630836D-04  0.123170D-02  0.205159D-03
     38  0.270359D-02  0.131412D-02  0.176878D-03  0.735478D-03  0.977363D-04
     39  0.179079D-03  0.593405D-04 -0.451274D-03  0.635701D-03  0.308835D-04
     40 -0.290131D-03 -0.209481D-03  0.275788D-03 -0.755594D-03 -0.106804D-03
     41 -0.332576D-05  0.205425D-03  0.247868D-03 -0.161897D-03 -0.190740D-04
     42 -0.549008D-03  0.700165D-04 -0.482348D-03 -0.141175D-03  0.464913D-04
               21            22            23            24            25 
     21  0.108090D+00
     22  0.442953D-02  0.100421D+00
     23 -0.565176D-02  0.103446D+00  0.256958D+00
     24  0.281298D-02  0.289847D-01  0.642761D-01  0.709489D-01
     25 -0.173565D-01  0.796542D-03 -0.111608D-03 -0.142108D-01  0.586579D+00
     26  0.241034D-01  0.267844D-02 -0.159170D-02 -0.296927D-01  0.212198D-02
     27 -0.168613D-01  0.543494D-03 -0.552370D-03 -0.984229D-02  0.473617D-03
[...]
 Alpha virt. eigenvalues --    2.08387   2.12612   2.14075   2.18706   2.22912
 Alpha virt. eigenvalues --    2.25287   2.29443   2.36408   2.37026   2.40554
 Alpha virt. eigenvalues --    2.48152   2.52285   2.52718   2.56606   2.58903
 Alpha virt. eigenvalues --    2.63436   2.65750   2.66448   2.68443   2.71395
 Alpha virt. eigenvalues --    2.71902   2.75445   2.79483   2.81653   2.88344
 Alpha virt. eigenvalues --    2.91719   2.92880   2.96097   3.03755   3.12491
 Alpha virt. eigenvalues --    3.14978   3.23105   3.28199   3.31360   3.39645
 Alpha virt. eigenvalues --    3.51121   3.79630   3.84358   3.85878   3.87709
 Alpha virt. eigenvalues --    3.95025   4.01891   4.16402   4.43472   5.18275
 Alpha virt. eigenvalues --    5.20572   5.63685  23.85844  23.97087  24.07040
 Alpha virt. eigenvalues --   24.17981  50.03266
  Beta  occ. eigenvalues --  -19.60061 -10.57678 -10.56681 -10.54796 -10.52528
  Beta  occ. eigenvalues --   -1.03432  -0.90933  -0.82662  -0.73777  -0.63227
  Beta  occ. eigenvalues --   -0.56555  -0.52252  -0.50692  -0.47832  -0.45756
  Beta  occ. eigenvalues --   -0.41970  -0.41541  -0.41154  -0.35770  -0.33774
  Beta virt. eigenvalues --   -0.06749  -0.00463   0.01174   0.01448   0.02278
  Beta virt. eigenvalues --    0.03957   0.04079   0.04678   0.05582   0.06805
  Beta virt. eigenvalues --    0.07446   0.08604   0.10100   0.10910   0.11725
  Beta virt. eigenvalues --    0.12470   0.12777   0.13942   0.14392   0.14673
  Beta virt. eigenvalues --    0.14860   0.15630   0.16135   0.16236   0.17071
  Beta virt. eigenvalues --    0.18098   0.20242   0.21572   0.22374   0.22762
  Beta virt. eigenvalues --    0.24689   0.26043   0.27225   0.28668   0.29588
  Beta virt. eigenvalues --    0.30580   0.31464   0.32419   0.33670   0.36089
  Beta virt. eigenvalues --    0.38826   0.41939   0.43151   0.46738   0.48522
  Beta virt. eigenvalues --    0.49064   0.51517   0.56208   0.57898   0.59891
  Beta virt. eigenvalues --    0.62012   0.63189   0.65888   0.68267   0.69083
  Beta virt. eigenvalues --    0.70430   0.71317   0.72281   0.75666   0.76185
  Beta virt. eigenvalues --    0.77621   0.79388   0.80856   0.83562   0.88243
  Beta virt. eigenvalues --    0.91909   0.98871   1.02096   1.05863   1.10343
  Beta virt. eigenvalues --    1.15677   1.17988   1.22696   1.24059   1.28747
  Beta virt. eigenvalues --    1.31095   1.39925   1.42439   1.44574   1.49265
  Beta virt. eigenvalues --    1.51795   1.52560   1.53426   1.58310   1.60202
  Beta virt. eigenvalues --    1.62023   1.63769   1.67159   1.67990   1.71833
  Beta virt. eigenvalues --    1.73147   1.75650   1.78164   1.82089   1.82785
  Beta virt. eigenvalues --    1.85142   1.87348   1.90765   1.95084   2.02155
  Beta virt. eigenvalues --    2.06640   2.08857   2.12723   2.14722   2.19084
  Beta virt. eigenvalues --    2.23253   2.26175   2.29646   2.36782   2.37279
  Beta virt. eigenvalues --    2.41539   2.48393   2.52362   2.52818   2.57025
  Beta virt. eigenvalues --    2.59035   2.64001   2.65949   2.66489   2.68625
  Beta virt. eigenvalues --    2.71679   2.72075   2.75777   2.79942   2.82420
  Beta virt. eigenvalues --    2.89155   2.91954   2.94855   2.97415   3.07123
  Beta virt. eigenvalues --    3.13950   3.15951   3.24486   3.30548   3.32079
  Beta virt. eigenvalues --    3.40043   3.51910   3.79414   3.84542   3.85914
  Beta virt. eigenvalues --    3.87804   3.96995   4.03119   4.17111   4.44344
  Beta virt. eigenvalues --    5.20255   5.26130   5.65758  23.86200  23.97118
  Beta virt. eigenvalues --   24.07097  24.18425  50.02516
          Condensed to atoms (all electrons):
               1          2          3          4          5          6
     1  C    6.874082   0.438402   0.195601  -0.552340   0.055677  -0.211353
     2  H    0.438402   0.493329  -0.025529  -0.032121   0.008567  -0.049712
     3  H    0.195601  -0.025529   0.536423   0.046511  -0.017930   0.077689
     4  C   -0.552340  -0.032121   0.046511   6.236549   0.334671  -0.199219
     5  H    0.055677   0.008567  -0.017930   0.334671   0.505243  -0.082030
     6  C   -0.211353  -0.049712   0.077689  -0.199219  -0.082030   6.155926
     7  H    0.014361   0.005305  -0.005822  -0.054738   0.012581   0.393406
     8  H   -0.001268  -0.002697   0.002662  -0.057469  -0.016762   0.468172
     9  C   -0.146964   0.014982  -0.001245   0.141483   0.005537  -0.082020
    10  H    0.017879  -0.007221   0.003819  -0.068487  -0.004804   0.023389
    11  H   -0.014278  -0.000999   0.001704   0.007227  -0.001504  -0.027240
    12  H   -0.007111   0.001709  -0.004275   0.018943   0.004894  -0.052730
    13  O   -0.030903  -0.061478  -0.015623  -0.095120  -0.006917   0.096424
    14  H   -0.010102   0.008707  -0.007208   0.053290   0.002384  -0.024541
               7          8          9         10         11         12
     1  C    0.014361  -0.001268  -0.146964   0.017879  -0.014278  -0.007111
     2  H    0.005305  -0.002697   0.014982  -0.007221  -0.000999   0.001709
     3  H   -0.005822   0.002662  -0.001245   0.003819   0.001704  -0.004275
     4  C   -0.054738  -0.057469   0.141483  -0.068487   0.007227   0.018943
     5  H    0.012581  -0.016762   0.005537  -0.004804  -0.001504   0.004894
     6  C    0.393406   0.468172  -0.082020   0.023389  -0.027240  -0.052730
     7  H    0.542219  -0.065919  -0.002303  -0.013467  -0.000687   0.002815
     8  H   -0.065919   0.579866  -0.071063   0.009959  -0.005578  -0.011312
     9  C   -0.002303  -0.071063   5.444520   0.397518   0.393075   0.422587
    10  H   -0.013467   0.009959   0.397518   0.513239  -0.022670  -0.054328
    11  H   -0.000687  -0.005578   0.393075  -0.022670   0.534823  -0.025856
    12  H    0.002815  -0.011312   0.422587  -0.054328  -0.025856   0.556675
    13  O   -0.015067   0.004469  -0.022997   0.008126   0.003582  -0.003563
    14  H   -0.001930   0.000731   0.002774  -0.000302  -0.000114  -0.000347
              13         14
     1  C   -0.030903  -0.010102
     2  H   -0.061478   0.008707
     3  H   -0.015623  -0.007208
     4  C   -0.095120   0.053290
     5  H   -0.006917   0.002384
     6  C    0.096424  -0.024541
     7  H   -0.015067  -0.001930
     8  H    0.004469   0.000731
     9  C   -0.022997   0.002774
    10  H    0.008126  -0.000302
    11  H    0.003582  -0.000114
    12  H   -0.003563  -0.000347
    13  O    8.210640   0.241697
    14  H    0.241697   0.524372
          Atomic-Atomic Spin Densities.
               1          2          3          4          5          6
     1  C   -0.129654   0.008826   0.039547   0.027928  -0.008949   0.100148
     2  H    0.008826   0.018564  -0.002080  -0.006595   0.000109   0.006832
     3  H    0.039547  -0.002080   0.007259  -0.018519   0.000310  -0.001967
     4  C    0.027928  -0.006595  -0.018519   0.609904   0.005232   0.012298
     5  H   -0.008949   0.000109   0.000310   0.005232  -0.026114   0.001736
     6  C    0.100148   0.006832  -0.001967   0.012298   0.001736  -0.146367
     7  H   -0.024312  -0.000205  -0.001263   0.011801   0.000103  -0.018378
     8  H    0.020018   0.000138   0.001141  -0.062574  -0.000763   0.052402
     9  C   -0.047273  -0.003688  -0.004596   0.029599  -0.000081  -0.013797
    10  H    0.021324   0.000093   0.000864  -0.012216  -0.000080   0.011525
    11  H   -0.001791   0.000131  -0.000355   0.011227   0.000316  -0.014464
    12  H   -0.005127   0.000211   0.000072   0.004819  -0.000237  -0.002318
    13  O   -0.131905  -0.006128  -0.014699  -0.006384   0.002513  -0.052438
    14  H    0.008104   0.000262   0.001626  -0.004090  -0.000363   0.006545
               7          8          9         10         11         12
     1  C   -0.024312   0.020018  -0.047273   0.021324  -0.001791  -0.005127
     2  H   -0.000205   0.000138  -0.003688   0.000093   0.000131   0.000211
     3  H   -0.001263   0.001141  -0.004596   0.000864  -0.000355   0.000072
     4  C    0.011801  -0.062574   0.029599  -0.012216   0.011227   0.004819
     5  H    0.000103  -0.000763  -0.000081  -0.000080   0.000316  -0.000237
     6  C   -0.018378   0.052402  -0.013797   0.011525  -0.014464  -0.002318
     7  H    0.053263  -0.018642   0.016605  -0.006226   0.001678   0.001071
     8  H   -0.018642   0.046339  -0.013789   0.003664  -0.000775  -0.001402
     9  C    0.016605  -0.013789   0.017706  -0.012906   0.006364   0.001849
    10  H   -0.006226   0.003664  -0.012906   0.007787  -0.001443  -0.001632
    11  H    0.001678  -0.000775   0.006364  -0.001443  -0.001688   0.000184
    12  H    0.001071  -0.001402   0.001849  -0.001632   0.000184   0.003578
    13  O    0.010994  -0.003854   0.030971  -0.009538   0.000185   0.001359
    14  H   -0.001726   0.000568  -0.003058   0.001021  -0.000117  -0.000142
              13         14
     1  C   -0.131905   0.008104
     2  H   -0.006128   0.000262
     3  H   -0.014699   0.001626
     4  C   -0.006384  -0.004090
     5  H    0.002513  -0.000363
     6  C   -0.052438   0.006545
     7  H    0.010994  -0.001726
     8  H   -0.003854   0.000568
     9  C    0.030971  -0.003058
    10  H   -0.009538   0.001021
    11  H    0.000185  -0.000117
    12  H    0.001359  -0.000142
    13  O    0.711009   0.005129
    14  H    0.005129  -0.024697
 Mulliken charges and spin densities:
               1          2
     1  C   -0.621685  -0.123116
     2  H    0.208756   0.016469
     3  H    0.213223   0.007340
     4  C    0.220820   0.602428
     5  H    0.200392  -0.026269
     6  C   -0.486162  -0.058243
     7  H    0.189246   0.024764
     8  H    0.166210   0.022470
     9  C   -0.495884   0.003907
    10  H    0.197351   0.002237
    11  H    0.158515  -0.000548
    12  H    0.151899   0.002285
    13  O   -0.313270   0.537213
    14  H    0.210588  -0.010937
 Sum of Mulliken charges =   0.00000   1.00000
 Mulliken charges and spin densities with hydrogens summed into heavy atoms:
               1          2
     1  C   -0.199706  -0.099307
     4  C    0.421212   0.576159
     6  C   -0.130705  -0.011009
     9  C    0.011881   0.007881
    13  O   -0.102682   0.526276
 APT charges:
               1
     1  C   -0.861208
     2  H    0.329912
     3  H    0.528008
     4  C   -0.095968
     5  H    0.468621
     6  C   -1.046300
     7  H    0.393933
     8  H    0.483931
     9  C   -1.112379
    10  H    0.248166
    11  H    0.531945
    12  H    0.350065
    13  O   -0.682055
    14  H    0.463329
 Sum of APT charges =   0.00000
 APT charges with hydrogens summed into heavy atoms:
               1
     1  C   -0.003288
     4  C    0.372654
     6  C   -0.168436
     9  C    0.017797
    13  O   -0.218726
 Electronic spatial extent (au):  <R**2>=            514.1033
 Charge=              0.0000 electrons
 Dipole moment (field-independent basis, Debye):
    X=             -0.6352    Y=             -1.9798    Z=             -1.6639  Tot=              2.6630
 Quadrupole moment (field-independent basis, Debye-Ang):
   XX=            -31.8703   YY=            -36.5951   ZZ=            -30.1199
   XY=             -1.7910   XZ=             -1.3862   YZ=             -2.6984
 Traceless Quadrupole moment (field-independent basis, Debye-Ang):
   XX=              0.9914   YY=             -3.7333   ZZ=              2.7419
   XY=             -1.7910   XZ=             -1.3862   YZ=             -2.6984
 Octapole moment (field-independent basis, Debye-Ang**2):
  XXX=              5.9977  YYY=              6.2927  ZZZ=             -5.5944  XYY=             -2.3616
  XXY=             -1.2122  XXZ=             -2.7682  XZZ=              4.7485  YZZ=              4.5886
  YYZ=             -6.0715  XYZ=             -3.1997
 Hexadecapole moment (field-independent basis, Debye-Ang**3):
 XXXX=           -301.6144 YYYY=           -208.2739 ZZZZ=           -169.3328 XXXY=            -59.3840
 XXXZ=             29.9001 YYYX=            -53.1936 YYYZ=            -10.9073 ZZZX=             36.2965
 ZZZY=              0.3164 XXYY=            -92.5189 XXZZ=            -77.9201 YYZZ=            -57.1914
 XXYZ=             -2.4411 YYXZ=              8.2568 ZZXY=            -15.7325
 N-N= 1.779120424094D+02 E-N=-8.989195001936D+02  KE= 2.319317310741D+02
  Exact polarizability:   0.000   0.000   0.000   0.000   0.000   0.000
 Approx polarizability:  66.338   6.180  78.364   4.985   5.661  62.111
                          Isotropic Fermi Contact Couplings
        Atom                 a.u.       MegaHertz       Gauss      10(-4) cm-1
     1  C(13)              0.00792       8.90786       3.17855       2.97134
     2  H(1)               0.00596      26.65063       9.50961       8.88969
     3  H(1)               0.00174       7.76159       2.76953       2.58899
     4  C(13)              0.08157      91.70552      32.72281      30.58967
     5  H(1)              -0.00903     -40.38189     -14.40926     -13.46995
     6  C(13)             -0.01756     -19.74199      -7.04443      -6.58522
     7  H(1)               0.01232      55.05934      19.64654      18.36582
     8  H(1)               0.01163      51.97019      18.54426      17.33539
     9  C(13)             -0.00025      -0.27756      -0.09904      -0.09258
    10  H(1)              -0.00005      -0.22683      -0.08094      -0.07566
    11  H(1)              -0.00032      -1.44553      -0.51580      -0.48218
    12  H(1)               0.00002       0.09178       0.03275       0.03062
    13  O(17)              0.14466     -87.69313     -31.29109     -29.25128
    14  H(1)              -0.00938     -41.94462     -14.96688     -13.99122
 --------------------------------------------------------
       Center         ----  Spin Dipole Couplings  ----
                      3XX-RR        3YY-RR        3ZZ-RR
 --------------------------------------------------------
     1   Atom        0.046672     -0.078385      0.031713
     2   Atom       -0.001058      0.003390     -0.002332
     3   Atom        0.007878      0.000655     -0.008533
     4   Atom       -0.312123      0.616172     -0.304049
     5   Atom       -0.041572     -0.003060      0.044632
     6   Atom       -0.002674      0.012416     -0.009742
     7   Atom        0.010543     -0.004745     -0.005797
     8   Atom        0.007558     -0.001882     -0.005676
     9   Atom        0.000641     -0.003636      0.002995
    10   Atom       -0.000503     -0.003188      0.003690
    11   Atom        0.000962     -0.001705      0.000744
    12   Atom       -0.002533     -0.001618      0.004151
    13   Atom       -1.121647      2.066216     -0.944570
    14   Atom       -0.080919     -0.013649      0.094568
 --------------------------------------------------------
                        XY            XZ            YZ
 --------------------------------------------------------
     1   Atom       -0.006650      0.015676      0.005201
     2   Atom       -0.000376      0.011039     -0.006841
     3   Atom       -0.004015      0.006564      0.004185
     4   Atom       -0.073534      0.006367     -0.078167
     5   Atom       -0.002906     -0.003058      0.007127
     6   Atom       -0.000044     -0.003343     -0.000849
     7   Atom       -0.002306      0.000591     -0.000061
     8   Atom        0.007204     -0.001500      0.000552
     9   Atom        0.001726     -0.005585     -0.000707
    10   Atom        0.002118     -0.006640     -0.000185
    11   Atom        0.000828     -0.003239     -0.000308
    12   Atom        0.001683     -0.003379     -0.002307
    13   Atom        0.171760      0.040204      0.806057
    14   Atom        0.005668      0.000703     -0.043274
 --------------------------------------------------------


 ---------------------------------------------------------------------------------
              Anisotropic Spin Dipole Couplings in Principal Axis System
 ---------------------------------------------------------------------------------

       Atom             a.u.   MegaHertz   Gauss  10(-4) cm-1        Axes

              Baa    -0.0791   -10.611    -3.786    -3.539  0.0596  0.9967 -0.0552
     1 C(13)  Bbb     0.0224     3.012     1.075     1.005 -0.5264  0.0784  0.8466
              Bcc     0.0566     7.598     2.711     2.534  0.8482 -0.0214  0.5293
 
              Baa    -0.0141    -7.525    -2.685    -2.510 -0.6163  0.2753  0.7378
     2 H(1)   Bbb     0.0017     0.909     0.324     0.303  0.5630  0.8091  0.1684
              Bcc     0.0124     6.616     2.361     2.207  0.5506 -0.5192  0.6536
 
              Baa    -0.0129    -6.896    -2.461    -2.300 -0.3436 -0.3679  0.8641
     3 H(1)   Bbb     0.0021     1.118     0.399     0.373  0.1298  0.8926  0.4317
              Bcc     0.0108     5.779     2.062     1.928  0.9301 -0.2605  0.2590
 
              Baa    -0.3179   -42.662   -15.223   -14.230  0.9967  0.0760 -0.0290
     4 C(13)  Bbb    -0.3106   -41.685   -14.874   -13.904  0.0224  0.0858  0.9961
              Bcc     0.6286    84.346    30.097    28.135 -0.0782  0.9934 -0.0838
 
              Baa    -0.0419   -22.337    -7.970    -7.451  0.9972  0.0692  0.0295
     5 H(1)   Bbb    -0.0039    -2.106    -0.751    -0.702 -0.0641  0.9868 -0.1488
              Bcc     0.0458    24.442     8.722     8.153 -0.0395  0.1465  0.9884
 
              Baa    -0.0111    -1.490    -0.532    -0.497  0.3687  0.0342  0.9289
     6 C(13)  Bbb    -0.0013    -0.181    -0.065    -0.060  0.9295 -0.0197 -0.3682
              Bcc     0.0124     1.671     0.596     0.557  0.0057  0.9992 -0.0391
 
              Baa    -0.0058    -3.105    -1.108    -1.036 -0.0403 -0.0299  0.9987
     7 H(1)   Bbb    -0.0051    -2.713    -0.968    -0.905  0.1446  0.9889  0.0354
              Bcc     0.0109     5.818     2.076     1.941  0.9887 -0.1458  0.0355
 
              Baa    -0.0070    -3.710    -1.324    -1.238  0.3739 -0.6073  0.7010
     8 H(1)   Bbb    -0.0046    -2.434    -0.868    -0.812 -0.2925  0.6400  0.7105
              Bcc     0.0115     6.144     2.192     2.050  0.8801  0.4707 -0.0617
 
              Baa    -0.0048    -0.640    -0.228    -0.213 -0.6106  0.6971 -0.3759
     9 C(13)  Bbb    -0.0030    -0.402    -0.143    -0.134  0.4772  0.7026  0.5278
              Bcc     0.0078     1.042     0.372     0.347 -0.6320 -0.1429  0.7616
 
              Baa    -0.0062    -3.331    -1.189    -1.111  0.7337 -0.4794  0.4815
    10 H(1)   Bbb    -0.0025    -1.323    -0.472    -0.441  0.3230  0.8695  0.3736
              Bcc     0.0087     4.655     1.661     1.553 -0.5978 -0.1186  0.7928
 
              Baa    -0.0026    -1.363    -0.486    -0.455  0.6652 -0.4260  0.6133
    11 H(1)   Bbb    -0.0016    -0.880    -0.314    -0.294  0.2076  0.8944  0.3961
              Bcc     0.0042     2.243     0.800     0.748  0.7173  0.1362 -0.6834
 
              Baa    -0.0042    -2.236    -0.798    -0.746  0.8985 -0.3477  0.2678
    12 H(1)   Bbb    -0.0023    -1.240    -0.442    -0.414  0.2137  0.8796  0.4250
              Bcc     0.0065     3.476     1.240     1.159 -0.3833 -0.3246  0.8647
 
              Baa    -1.1473    83.015    29.622    27.691  0.1672 -0.2483  0.9542
    13 O(17)  Bbb    -1.1303    81.789    29.185    27.282  0.9846 -0.0088 -0.1748
              Bcc     2.2776  -164.805   -58.806   -54.973  0.0518  0.9687  0.2430
 
              Baa    -0.0815   -43.494   -15.520   -14.508  0.9944 -0.1015 -0.0289
    14 H(1)   Bbb    -0.0282   -15.064    -5.375    -5.025  0.1053  0.9381  0.3300
              Bcc     0.1098    58.558    20.895    19.533 -0.0064 -0.3312  0.9435
 

 ---------------------------------------------------------------------------------


 This type of calculation cannot be archived.


 ERWIN WITH HIS PSI CAN DO
 CALCULATIONS QUITE A FEW.
 BUT ONE THING HAS NOT BEEN SEEN
 JUST WHAT DOES PSI REALLY MEAN.
 -- WALTER HUCKEL, TRANS. BY FELIX BLOCH
 Job cpu time:       0 days  6 hours 49 minutes 59.5 seconds.
 File lengths (MBytes):  RWF=    198 Int=      0 D2E=      0 Chk=      6 Scr=      2
 Normal termination of Gaussian 09 at Mon Mar 15 22:42:14 2021.
